LAMMPS data file via write_data, version 7 Feb 2024, timestep = 775, units = metal

25 atoms
3 atom types

0 2.2858575148342073 xlo xhi
0 2.2858575148342073 ylo yhi
0 48.00300781151835 zlo zhi
0 13.715145089005246 2.2858575148342073 xy xz yz

Masses

1 50.9415
2 28.085
3 51.9961

Atoms # atomic

1 3 3.545087331044552 2.3145808623909083 7.314625811732058 0 0 0
5 3 2.403386441600671 1.1678255717334804 5.493344433500744 0 0 0
7 2 2.409999271437439 1.1006191569433132 1.7837809362491397 -1 0 0
21 1 1.262421900229066 2.309264234536388 3.659048216033067 1 -1 0
2 3 4.131035856060224 1.5792934441598507 13.235192999361244 1 0 0
3 3 4.68737845701347 1.1724333553087696 9.139361597496261 0 0 0
13 2 5.274004084164323 2.7218718463560196 15.072912521940772 0 -1 0
15 1 5.273946432213009 2.7216536786307866 11.398715003999863 0 -1 0
4 3 5.073125967946188 1.5032087063645259 17.26514331154791 0 1 0
14 2 7.670171280766923 3.05131499842527 23.671118400465062 1 0 0
19 1 7.671828613069726 1.1009705253087139 19.657550081593605 0 1 0
11 2 6.527305349679741 2.432047117757895 21.60133321597008 1 0 0
16 1 9.955681686506095 3.049745826308862 27.34462978617459 0 0 0
22 1 8.813052144917021 1.9072106543774592 25.506885987114444 0 1 0
17 1 9.2944778258127 3.127251732147694 31.328420426063726 1 1 0
20 1 10.438559695268944 1.981076739785689 29.494208766520675 0 1 0
25 1 10.43606003965618 1.9857521522103512 33.16109516453259 1 1 0
8 2 11.574622594723348 3.361569502369992 35.12178708994329 0 1 0
12 2 12.715300393655074 2.2200009547947173 36.95774870379521 1 1 0
24 1 11.569941613536024 3.3665313289241032 38.789514672549856 1 1 0
6 2 14.984671528424025 4.526658491748703 47.95308404252482 1 0 0
9 2 12.703819473586531 2.232739102438107 44.290615441184634 2 1 0
10 2 13.84450254419198 3.3802005015301972 46.12104006712178 1 1 0
18 1 13.850316558174132 3.372951984644523 42.45486997650835 1 1 0
23 1 12.710222447617353 2.226678738746017 40.62120541110887 1 1 0

Velocities

1 0.49136685228669447 -0.5317141997809217 0.2769215123098478
5 0.4385619802535164 -0.455859776035865 0.21430828223967838
7 0.31917395963172446 -0.5368654906689778 -0.1038457021780711
21 0.4093209873689596 -0.37165020481792116 0.15351695604393042
2 0.022696356119322095 -0.08162725387473986 0.7166795426741269
3 0.5330111387149274 -0.5693475163429426 0.3303463977771292
13 0.02511685649748903 -0.06832726011994875 0.7663261795125174
15 0.012589816057159685 -0.07577098208063777 0.7051446208175594
4 -0.18505900699450106 0.29925652418288484 0.575623919062475
14 0.000313165448167528 0.6177652965816056 -0.5260664842320784
19 0.10199313585669376 -0.5676843914444274 0.4188999209096539
11 -0.031073384130818497 -1.4125420941154418 0.1097524354085134
16 0.02923414891552549 0.6337521156583156 -0.5350537206548178
22 0.019330550429733473 0.6137427830977503 -0.5181978418440766
17 -0.8430736533164217 0.8076300544450029 -0.3939960670547667
20 -0.7910324940025248 2.145702063238121 0.3714082252967408
25 -0.05642788319940556 -1.6123537070280667 -0.7396754436397527
8 -0.1622106192014021 0.3936864935294581 -0.36293884572057267
12 -0.24122123167306203 0.45078606355585377 -0.4056073371134239
24 -0.2214747684104831 0.37090133911652473 -0.4145459248587052
6 0.26335079485705887 -0.4171880772333641 0.08788067536972077
9 0.09880562419442299 -0.14008877594157407 0.13715694565162767
10 0.08846483239487374 -0.17518817112927784 -0.5343994568024383
18 -0.06780108583793873 0.07300610371584663 -0.27185923531592077
23 -0.15901517811924717 0.23582787102629493 -0.33470284541325557
