LAMMPS data file via write_data, version 7 Feb 2024, timestep = 701, units = metal

30 atoms
3 atom types

0 2.2858575148342073 xlo xhi
0 4.571715029668415 ylo yhi
0 29.716147692844693 zlo zhi
0 2.2858575148342073 6.857572544502622 xy xz yz

Masses

1 50.9415
2 28.085
3 51.9961

Atoms # atomic

12 2 1.0621044659796541 1.827564352983843 5.255922812149135 0 1 0
15 1 2.2271186048581892 3.470869672765623 1.068292135166989 0 0 0
17 1 1.0816779675038015 1.062066658168507 1.099592556464647 0 1 0
23 1 2.2367829483720283 4.037708288379517 5.181541623423061 0 0 0
24 1 2.223239032829517 0.9712025106918767 3.260223747664941 0 1 0
30 1 1.088426427586756 3.162150372900443 3.2071520563071236 1 0 0
1 3 2.441461125686702 4.232089381582523 9.25935529718327 0 0 0
2 2 2.442919251580715 7.073396812730572 13.22429552088829 0 0 0
4 2 1.0565943653605507 6.528056702490006 9.254690061805743 1 0 0
9 2 1.2967809748647585 4.98139858597777 7.231345613923649 0 0 0
10 2 2.196099720053462 5.6602355618035975 11.23153321279572 0 0 0
14 2 2.2027864583685806 2.708254988374137 7.229804786385229 0 1 0
18 1 1.0471401774505076 4.79395398664221 13.208209469407565 1 1 0
22 1 1.299172438684252 3.364549807251456 11.240743867658678 0 1 0
5 2 2.839542526156026 4.806330533225698 20.769200912459514 1 1 0
7 2 2.223407262122474 9.3741850732006 24.702423344988617 1 0 0
8 2 3.984046798679316 5.948854823389082 22.605615976881936 0 1 0
11 2 1.6953425454830033 5.94791272324197 15.264564903855026 1 1 0
13 2 3.091302162442012 7.090101412895721 24.57288123645472 1 1 0
16 1 2.8400277884396554 7.091311205043024 17.10247869110372 1 0 0
19 1 1.6996213215240767 3.660949620657337 15.267719670782094 1 1 0
20 1 2.8393472491743283 7.092173686815638 20.768432719210814 1 1 0
21 1 3.9819397804134202 8.234670041155912 22.60453786925879 1 0 0
25 1 1.6965538728724088 8.235084228450203 18.935806998489053 1 0 0
26 1 1.696337753144431 5.949042959122611 18.936019893401742 2 1 0
29 1 2.8389022984945362 4.806348612377271 17.10196163690708 0 1 0
3 2 2.223275141585916 8.82946044056931 28.852924565370678 1 1 0
6 2 2.2201261159476293 7.4760413573243785 26.818792488946016 1 1 0
27 1 3.3650667071564744 9.639821415005452 26.8475532874321 1 1 0
28 1 3.3666633236482935 11.137233468843489 28.779371559614834 1 1 0

Velocities

12 -0.16167174932726103 0.47850307571433887 0.02032578916839977
15 -0.31165676192932823 0.331320724653481 0.04438358502986332
17 0.11932798268817335 0.28755874057508884 0.14207753993184347
23 -0.41194394374393023 0.0677727364425301 -0.06890680732116168
24 0.06765400819843687 0.1957900000044535 0.09563169251901664
30 -0.3866873392666545 0.27858284008637485 -0.10149871887235278
1 -0.18694351180780688 -0.05836214531228996 -0.05578328733351298
2 -0.2397853795860656 -0.23670022930881335 -0.23442032288220754
4 -0.255970106794918 -0.11765739842480727 -0.18594775396149027
9 -0.2426786741038616 0.2783802770939259 0.01765743147317466
10 -0.16664776460713343 0.08720657313716505 0.17034452290498134
14 -0.16297104775574464 0.3214328544172912 0.19724640104276897
18 -0.09189563913164243 -0.09718407872244096 0.01057633506951576
22 -0.19394214913173757 0.1167571745045752 -0.030509062218562862
5 0.3259495798427061 -0.5751280000311519 -1.990336924647231
7 -0.03554020711450673 -0.14163857209343303 -0.19184708061414565
8 0.05743596908336177 0.3343183621997281 1.0739634169630297
11 0.1835368443915827 -0.23962160944004107 0.20746109625335046
13 0.36383184903337434 -0.36975240472351195 -0.5540018694741713
16 0.2364501908430001 -0.23906679663282754 -0.29644974684334396
19 0.24718724820109653 -0.24846965715916464 0.03689372215923228
20 0.3255936047113561 -0.1118958767958908 -0.36146577118272627
21 0.20010931827618958 -0.5144911450664799 0.4960272143865699
25 0.23003554064749204 0.001650934857625741 0.6804915384615473
26 0.2300507959558469 -0.5119029928187819 0.5319428493849564
29 0.2188524179558563 -0.26254681121701956 -0.2413945912507107
3 0.07257291955100906 0.09607508075092586 -0.07804262980252613
6 -0.16909831528642366 0.353955913174798 0.23801018689986345
27 0.03868578556423486 0.22298862852957188 0.1615963537678844
28 -0.02508147041473869 0.36303675073392166 -0.20206206503469293
