LAMMPS data file via write_data, version 7 Feb 2024, timestep = 330, units = metal

88 atoms
3 atom types

0 2.2858575148342073 xlo xhi
0 4.571715029668415 ylo yhi
0 36.57372023734732 zlo zhi
0 32.002005207678906 6.857572544502622 xy xz yz

Masses

1 50.9415
2 28.085
3 51.9961

Atoms # atomic

2 3 4.460126150749028 2.7105870280978053 3.2467682151554724 1 0 0
16 3 2.1933722728164833 2.646774523629674 0.01624642542134435 0 0 0
21 3 5.557638739355758 1.604322623149721 4.772685575366886 1 1 0
23 3 3.3353225564940403 3.809533344402027 1.6242427463492175 1 0 0
27 3 5.558330457803771 1.6000524387111281 4.785595026259091 0 0 0
28 2 2.1897997332948367 0.36808086233225085 0.00473968265431274 0 0 0
35 2 4.457704655222473 4.946706210350505 3.2761076535600373 1 0 0
40 2 5.556346255362267 3.8881740714064 4.772201479389148 1 0 0
50 2 4.459608029995392 4.951669167809145 3.261995639926387 0 -1 0
53 2 6.6483759440049806 2.835037019229 6.262312046667276 0 0 0
55 2 7.750285982426728 1.7140142946034307 7.879512515917943 0 0 0
57 2 4.458278589479004 2.718902184400518 3.2517221644584056 0 0 0
59 1 3.335660761195153 1.5156628948104989 1.6503725777722922 0 0 0
60 1 6.644971318693643 5.067527993404551 6.317370767957852 1 0 0
77 1 3.3354285582811665 3.810125237094396 1.6238860399978932 0 0 0
82 1 3.3356607613850544 1.5156628946883466 1.6503725779328349 0 0 0
9 3 6.64200765907841 2.8462945073084462 6.295310724831055 0 0 0
45 2 7.7368254150084805 4.000583570332534 7.945015491691372 1 0 0
46 2 7.750286201056899 1.7140138716447244 7.879512839037175 1 1 0
51 2 6.644403557403783 5.058333918331119 6.286438945083635 1 0 0
4 3 12.796883577185582 3.3844935021820977 12.494463997780079 2 1 0
6 3 9.818796343252556 5.501862092972585 9.78172335224106 0 0 0
7 3 14.047547551121575 6.937058188249996 13.673345219602684 0 0 0
8 3 8.79097787703277 2.874353220762861 9.547795949298614 2 1 0
10 3 14.02337571655929 4.6895982541886525 13.680160662071259 1 0 0
19 3 12.957529139953316 5.571524811966803 12.293442241464678 0 0 0
20 3 11.095520161793598 6.656946887098388 11.40174291877804 1 0 0
31 2 14.023488070495425 4.688756250038612 13.711047792519171 0 0 0
37 2 8.791896885046768 2.876783805279323 9.542822194168155 0 0 0
49 2 14.048542677173836 6.937901370815416 13.701369061216521 1 0 0
61 1 9.822474293299994 4.0625935327079015 11.155391171182204 2 1 0
76 1 7.736992990281818 3.9991611418707036 7.945383736525828 1 0 0
78 1 11.025833153631899 6.130959056157309 11.53292800632699 1 0 0
81 1 9.823929906652047 4.071239219786882 11.148122216485357 1 0 0
85 1 8.836402387391951 5.1276471514069835 9.499809810948591 1 0 0
38 2 15.186353498591876 5.8768568254350555 15.330832993108313 0 0 0
3 3 15.188292275745873 3.5999497135571636 15.307247909852322 2 1 0
5 3 16.388591617263945 4.802216361844008 16.98233650353975 1 1 0
11 3 18.197370428234766 7.323606599549502 20.463270453103117 1 0 0
15 3 16.291909987273918 7.09211934609346 16.945987437927883 1 0 0
26 3 17.56635878933315 3.941449792396434 18.728850258113617 1 1 0
30 2 21.486471855382714 6.351757851313946 22.166693678356676 0 0 0
36 2 16.299336979809908 7.08711334875862 16.930082280632764 1 0 0
42 2 18.848517659641654 5.045137816118918 20.427269671903943 1 1 0
47 2 18.19857258395545 7.320810588539892 20.488281230599526 1 0 0
64 1 17.59696205008275 6.045522748300953 18.653187156623474 0 0 0
70 1 17.58129760882213 3.9035053784255673 18.71725386429603 1 1 0
72 1 15.185604032635721 5.8756041340508744 15.328888384983303 1 0 0
75 1 17.58514975094796 6.0403847081145265 18.65766801799987 2 1 0
79 1 17.01882555523035 7.697601979142739 18.606446685539517 1 0 0
86 1 15.18819596780866 3.600620508887392 15.314100503101942 1 1 0
87 1 16.406590968780886 4.812009950914897 16.981641154586946 2 1 0
83 1 18.833395216991146 5.050645124280628 20.39133603192696 2 1 0
65 1 20.127887480695367 8.732603216867195 22.206104985175838 2 0 0
14 3 23.597178898078468 8.437862679933412 25.535502865461734 0 0 0
18 3 21.33468854704504 5.180922889973161 23.903769250288352 2 1 0
22 3 21.45797882348024 6.5561925216987955 22.17258007497885 1 1 0
24 3 24.749418839925436 7.279466266880364 27.105173121918067 1 1 0
32 2 23.60455330432744 8.440577526497373 25.542636068497284 1 0 0
33 2 23.598108225070703 6.182620602344135 25.589114143211674 2 1 0
39 2 24.75185849675482 9.596949964855757 27.076871714673857 1 0 0
41 2 24.743674481690096 7.285693418480955 27.09058895786789 2 1 0
44 2 25.907994036263798 8.441093831176069 28.700503414347278 1 1 0
48 2 27.077012642370725 9.556142268790705 30.35481958507289 1 0 0
56 2 21.349775118216893 5.171992366267488 23.916182040788588 2 1 0
66 1 22.50581817478979 7.285146327727858 23.969774536878937 1 1 0
69 1 20.128197500029938 8.731922147303877 22.206382380792412 2 0 0
71 1 25.90789550967082 8.434362479084006 28.720671859833057 2 1 0
73 1 22.506030902262797 7.280813196145063 23.965628210258746 0 0 0
74 1 24.74445711659249 9.60545316214559 27.097290464726882 1 0 0
84 1 25.906406461103888 6.138646639730821 28.725389239938806 1 1 0
67 1 25.90641406192481 6.136741470298318 28.71040739877844 2 1 0
52 2 27.067807349268183 7.272140964227985 30.313691639431497 1 1 0
1 3 28.254754194739697 8.373845739588539 31.904658076391836 2 1 0
12 3 28.25310631730035 8.381762261762349 31.886495931825365 2 1 0
13 3 30.740375030963488 10.635515623818076 34.952593408147315 2 1 0
17 3 29.064561971468095 9.962880241037032 32.78646858759564 2 1 0
25 3 29.57865636208215 7.233846774517828 33.39566632569793 2 1 0
29 2 29.50622438380919 9.483692407733638 33.47779832934654 2 1 0
34 2 29.579809818968428 7.229888833183683 33.40234821521529 1 1 0
43 2 27.092214750207475 7.26424076894453 30.323832202539627 1 1 0
54 2 30.74666999655412 8.379704558123226 34.948525381389956 1 1 0
58 1 2.1922279883691083 0.36749581557588107 0.006791155703527193 1 2 1
62 1 30.74443210314407 10.632136438204814 34.97815452386862 2 1 0
63 1 28.29952746325867 6.1593702803858985 31.803194789176413 1 1 0
68 1 30.75102630232142 8.374276029840905 34.972086458918625 1 1 0
80 1 27.077635681305157 9.589041198487228 30.354467175134214 2 0 0
88 1 2.1936708008635373 2.646309077458625 0.021186614234927174 1 1 1

Velocities

2 -3.8436975017598343 8.388723567008237 3.174256073980988
16 -7.438207617649403 4.692740561509808 -0.042326498111457694
21 -13.148814623845134 1.2397529488202748 5.936681477548012
23 -6.888511335634434 4.261038414520876 -0.6597812673486932
27 5.0509456835874955 7.523196225258863 -4.075396107954694
28 -7.570291110984502 4.112520556629521 0.5462153181764062
35 11.83673317594673 0.9941437297325144 -1.9594557241383923
40 -4.1207303720565385 1.3236727800449597 -0.31321719012905014
50 -23.901332359968027 2.991377082301243 1.8739076640706547
53 -9.239337386024525 14.460344097825123 0.18406315079252544
55 -1.2224010100505018 1.9476382232697025 1.8490006259398395
57 -9.524466252350441 1.007840782937936 -3.4142758133987057
59 -6.883999233214482 3.4631252575249434 -1.191897998377593
60 -2.132772544882994 3.090229840981955 -3.801780586386098
77 -6.891003582821648 4.267709612159079 -0.6437237387774719
82 -6.883999517157215 3.463125441795169 -1.1918982387621697
9 2.5189166456840137 -5.6231856476792395 -1.3501508368150257
45 -0.5280000789668258 4.1821677110188755 2.230252573982221
46 -1.2228578377599375 1.948645109199009 1.848345042976093
51 -1.8452861560187095 2.4455963150007074 10.759206373295468
4 8.529139840278145 0.8104464661743811 2.846348037881321
6 10.283106210571333 2.8637663961658104 2.200586620316026
7 9.484810710965037 1.9748230486567604 11.89467001337363
8 2.094635636167379 3.0054426478554044 0.7230147550191581
10 5.970281448538296 1.6950325321331952 5.646751407031453
19 5.85955438857933 -1.0087484574318317 5.956281333236966
20 9.89819551716457 2.2223973198040596 1.6910055673125006
31 5.497234392126455 -3.3816670343383546 4.315381363667042
37 2.135284551704023 3.1053416563991703 0.6100182686939788
49 0.08015558745880158 -3.6295075298576336 -6.865240868857449
61 -4.3919113881424625 2.718952482097466 1.9670230921933876
76 -0.42270929883537367 3.7467263286864947 1.5146734985994563
78 9.773150002105892 3.7602086058371826 0.05897427792917341
81 15.00465778415138 3.2855632567405286 1.099587601301962
85 0.5060310076101907 2.8530123095725894 0.5210339694781432
38 3.4542765687130754 2.334159262936458 4.757423545269607
3 3.507047413283612 -1.5707692925265941 4.7029358636856475
5 -7.442865545871699 4.657799649134706 -13.822633029042109
11 0.31733244373387093 14.948089123928243 4.370949593057378
15 7.171662814766304 -0.3074094305873366 5.22438790642069
26 -26.36795091000591 -24.094896466483757 -7.290654092529176
30 16.493271791840215 6.2406963463510206 -7.353819964303913
36 0.7978378519750766 0.23925788762000932 4.09288789501547
42 -2.474481211417416 -12.867151674555602 18.221341353442167
47 47.27989520670238 -37.22645552234518 -8.20505288198954
64 1.159926786025276 -3.6641982323598885 9.87612085327501
70 -19.981813455304476 -8.709326010325263 -0.7153442433139438
72 3.564675568343391 1.5740850010456446 4.413540236848584
75 -0.1621146431887766 -4.20732319985452 -8.257082154333752
79 12.239756940286767 18.231143113049544 5.11264223307499
86 3.5062915551663147 -1.605905052253656 4.716263947474083
87 -1.586931483094707 -3.0255296996899963 19.71346281534846
83 -18.192915736304613 -5.536622178933511 -12.49359825405226
65 -16.185085604018983 -8.63607749275117 -6.386374696836495
14 8.173268588572412 -7.922496337955289 -4.840934150223682
18 -17.424398954249902 11.217258520384545 0.6520163555185536
22 15.81232689145593 -24.145400826612423 -6.7699032906818815
24 14.864442865443198 0.1302448446504939 2.9984818250295953
32 10.399286384354795 4.266063476973557 0.14409704053256212
33 11.72238989616514 -2.9864673767715684 -1.9085802322798555
39 -1.7748423692405897 2.2895730080021712 1.2061855529823442
41 -6.260611476918525 -0.5720535732443252 -10.403898912381791
44 4.419468575881548 28.901614261702395 -3.128971308589045
48 -1.1041026172636546 1.1317301620415892 -1.6584362357514917
56 -13.217527306897122 -33.5323694223108 -14.302608805106363
66 5.4276528143143175 -8.68485169340891 -6.848644428560503
69 -16.180535528712728 -8.649982763212991 -6.437447926867835
71 4.6595172858424565 -16.44007633313831 -4.397508260952918
73 3.7069845424296823 0.041768089973654776 -2.230204937504012
74 10.780815888508197 -4.111922321334132 -3.988365677349582
84 3.239204053431653 -1.6003993898764775 -12.572909740926049
67 5.687351848629977 -0.39420229584870825 7.419034424269116
52 3.263368023854571 -16.210815139431112 -17.50548267914938
1 -5.674143107630254 4.943590612565914 -12.37803216913789
12 8.303214470775565 -2.5026582076141457 0.41705843201800796
13 -2.1125126025555954 3.415926570613333 7.350087674993469
17 25.197862491798272 -20.908024251589136 28.832308137396083
25 -6.376331976128707 -2.562731445793845 -3.857403178046719
29 -7.389890657550195 7.464429172151302 -5.805337494377199
34 -9.291518979109032 16.62833156151697 4.990236821463402
43 1.5813000955553034 15.85847270938921 12.715140361806121
54 -18.103305627500774 28.407273124575887 -10.081833319694828
58 -7.424662109646943 4.278812532915318 0.18832874763544438
62 -14.311527630389733 7.865122035849494 -9.17661490407608
63 -2.8857058502074495 1.8495761519319114 -1.498576699261755
68 -0.057554412740733696 -9.992833061224523 1.089022216132915
80 4.914682650320945 0.5958177011315042 -1.1544388899620914
88 -7.439995026877276 4.707402242070193 0.01105791566276415
