LAMMPS data file via write_data, version 7 Feb 2024, timestep = 1373, units = metal

8 atoms
1 atom types

0 5.76 xlo xhi
0 5.76 ylo yhi
0 2.88 zlo zhi

Masses

1 51.9961

Atoms # atomic

1 1 1.1090635285840011 3.6610360842647696 1.1557148149336913 0 0 0
2 1 1.263844559135746 2.4603724485553244 0.4324012736297018 0 0 0
3 1 1.5131929897479517 4.802859315379124 0.2967475541865456 0 0 0
4 1 1.2749536051923298 2.4432004678080728 1.8823764817047275 0 0 0
5 1 5.643789885489415 2.961904305337406 0.677751138837281 0 0 0
6 1 2.4024106183212317 3.034540632871493 1.1592214726924654 0 0 0
7 1 2.194804948638668 3.332398107060706 2.602069309070245 0 0 0
8 1 0.7975111039738789 3.632923883358743 2.597604162862755 0 0 0

Velocities

1 5.018611659113069e-07 4.925700529435008e-07 -6.131263746527863e-08
2 -1.1427392459976018e-06 6.237592836727098e-08 -6.883788105184086e-07
3 1.5744418059661036e-06 1.2661505914499266e-08 2.834611987091753e-07
4 -1.2322169797236375e-06 8.492694693069463e-09 6.370632473567771e-07
5 -4.5921247990178255e-07 1.9388932888742197e-06 -1.7489759288813947e-07
6 -1.3661683776207573e-07 -1.5368045209982825e-06 1.396987302240927e-08
7 8.688187644437288e-08 -1.5512997073352823e-06 -4.5218669162343585e-08
8 8.076007025752414e-07 5.731107499650236e-07 3.5313347065129854e-08
