LAMMPS data file via write_data, version 7 Feb 2024, timestep = 5670, units = metal

8 atoms
1 atom types

0 5.76 xlo xhi
0 5.76 ylo yhi
0 2.88 zlo zhi

Masses

1 51.9961

Atoms # atomic

1 1 5.187689937261319 0.656518599381245 2.779120497511096 -1 1 0
2 1 1.02385133456309 5.704959997393368 1.3320781622193443 0 -1 0
3 1 4.336625186952774 5.234464963389086 2.7839259424054923 0 -1 -1
4 1 5.500186328092468 0.7095539806547463 1.3446119842295459 0 0 0
5 1 5.5877931619198735 5.218154800289923 2.065153891925033 -1 0 0
6 1 5.063965688026807 4.050533875520298 1.3106652457166181 0 0 0
7 1 4.399005545598344 5.544981758988719 1.352284962808786 0 0 0
8 1 5.602698141802701 5.221776086903273 0.6330419477380428 -1 0 0

Velocities

1 1.517322602934971e-07 2.01286120364912e-08 -8.817036136496968e-11
2 1.538602425174196e-08 -2.2801637394317156e-07 1.0322501062475154e-08
3 -6.612167565991816e-08 1.9606927044257104e-07 5.915129881655271e-10
4 1.359553725880616e-07 -1.367476955583257e-08 3.949331083268215e-09
5 -9.547724316730372e-08 -4.2839231127404106e-08 3.763697428143182e-08
6 -7.884753714048763e-09 -7.922035253188033e-08 -1.8445887687532837e-08
7 -4.4035622490374826e-08 1.8497391462522054e-07 4.9132875574122204e-09
8 -8.955435277083892e-08 -3.742107614375533e-08 -3.887954285504105e-08
