LAMMPS data file via write_data, version 7 Feb 2024, timestep = 8920, units = metal

8 atoms
1 atom types

0 5.76 xlo xhi
0 5.76 ylo yhi
0 2.88 zlo zhi

Masses

1 51.9961

Atoms # atomic

1 1 2.394600768785116 0.11507124639047014 2.1164037373318894 0 1 0
2 1 2.6434532462004077 1.3170876027913643 1.3566255954697544 0 0 0
3 1 3.0627477538294947 1.2279585932384918 2.767058344065742 0 1 0
4 1 2.45476276641071 0.1361163830818974 0.6755838079591097 0 1 1
5 1 3.843390517453746 0.5477213164017535 0.9313096972018242 0 0 1
6 1 1.680899674332718 1.151541966322929 0.03589718231857875 0 0 0
7 1 1.2902657272788105 0.7295508765551703 1.3794849325766363 1 0 -1
8 1 2.3510598843140293 2.4273297399644735 0.4051721193241258 0 0 0

Velocities

1 -6.515687913528592e-08 2.6177105466791905e-07 -4.366011763608618e-08
2 -1.9276934199171384e-07 5.527770796462733e-08 3.80267775400641e-08
3 9.681717397316293e-08 1.0818118403362611e-07 -7.622402915102108e-09
4 6.473660624540099e-08 2.0881869681622273e-07 2.978852731037534e-08
5 -1.6110724861588024e-07 1.983426588685169e-07 2.5756547978858043e-07
6 1.981690389599049e-07 2.273631077159302e-07 3.593795737093181e-08
7 2.309158588217361e-07 -8.865049954509561e-07 -4.1572042433057157e-07
8 -1.7160520825727074e-07 -1.732494146157945e-07 1.0568420287187799e-07
