LAMMPS data file via write_data, version 7 Feb 2024, timestep = 2422, units = metal

8 atoms
1 atom types

0 5.76 xlo xhi
0 5.76 ylo yhi
0 2.88 zlo zhi

Masses

1 51.9961

Atoms # atomic

1 1 2.612520110757367 2.0948221289420226 0.28896015304849276 0 0 1
2 1 3.928128510452007 1.5167928540266573 0.2951053869910678 0 0 0
3 1 2.947021759731096 3.7304444325700796 1.6574940473059216 0 0 0
4 1 3.6527619402953477 2.708941781852495 1.0094966392516458 0 0 0
5 1 3.5735923188976813 1.4450931101451343 1.7314812632948378 0 0 0
6 1 3.7023427724071096 2.7206336557142703 2.433160509485302 0 0 0
7 1 2.4536414257938435 2.3390875653064205 1.73051153189842 0 0 0
8 1 4.875686500868943 2.042249817180826 1.3194812515000534 0 0 0

Velocities

1 9.693737624764229e-08 -2.844503254827316e-06 2.4083380893074364e-07
2 2.7484643219914395e-06 6.540409478796563e-07 1.8762052705482753e-07
3 -4.001627349365855e-06 -2.278869057166647e-06 2.8552472923865787e-07
4 -1.3943674406174512e-06 1.0675851138376557e-06 2.2471677730684506e-06
5 2.690153230357126e-06 8.958578995256633e-07 -2.95011946526825e-07
6 -1.6100993664430923e-06 1.2845406269186779e-06 -2.1863758527685037e-06
7 6.417060888515807e-07 -2.729803126020906e-06 -1.28418429877394e-07
8 8.288331189212195e-07 3.951150879046735e-06 -3.5134058355752044e-07
