LAMMPS data file via write_data, version 7 Feb 2024, timestep = 1370, units = metal

8 atoms
1 atom types

0 5.76 xlo xhi
0 5.76 ylo yhi
0 2.88 zlo zhi

Masses

1 51.9961

Atoms # atomic

1 1 1.7088716131212651 0.816370890548084 0.7190576917710414 0 0 0
2 1 1.7088716131212651 5.583528492139146 2.417110038486315 0 -1 -1
3 1 1.7088716131212651 5.137230206491586 1.0114565971547003 0 0 0
4 1 1.7088716131212653 2.2616554741414054 1.0546751522404125 0 0 0
5 1 1.7088716131212651 1.2632480368527557 2.149598983083421 0 0 0
6 1 1.7088716131212651 2.7073261903982053 2.459597219633912 0 0 -1
7 1 1.708871613121265 3.6919720177724074 0.7089842238011672 0 0 0
8 1 1.7088716131212651 4.142026367008795 2.1243743417953485 1 0 0

Velocities

1 9.887150118152235e-16 -2.868822174309343e-07 2.6787324168351443e-07
2 -3.7288089460851027e-16 3.057932645358606e-07 -2.7781192105163783e-07
3 -1.5117220313873542e-15 1.6646303134701368e-07 -2.743217746579744e-07
4 -1.082675807179536e-14 1.3164017688959454e-07 -1.9407074661422303e-07
5 1.6980847590556648e-15 -1.8979791107072297e-07 2.6397432850050296e-07
6 4.760282058976901e-16 5.644973749932472e-07 1.1188249161588507e-07
7 1.1127591402347844e-14 -5.491752668792329e-07 -9.503498430763131e-08
8 -1.5790583813251967e-15 -1.425384528198601e-07 1.9750936159063172e-07
