LAMMPS data file via write_data, version 7 Feb 2024, timestep = 2297, units = metal

8 atoms
1 atom types

0 5.76 xlo xhi
0 5.76 ylo yhi
0 2.88 zlo zhi

Masses

1 51.9961

Atoms # atomic

1 1 4.3229845982846085 0.41750352124519546 0.44447633848950874 0 0 0
2 1 3.127438357818548 0.8049168765914396 2.5158259132570397 0 0 0
3 1 1.9372869075349355 0.11145077436807291 0.21000245916592364 0 0 1
4 1 3.340994975370454 5.246358431998379 2.8652941618848624 0 0 0
5 1 3.6757052165453845 1.7254680344024993 0.6491109038435332 0 0 0
6 1 3.0838377263794365 0.4353383712347242 1.0879467365527802 0 0 0
7 1 3.4142754682839436 4.804463014736761 1.3752652049675669 0 0 0
8 1 4.253854959895697 0.1256533582812258 1.8847776693315152 0 1 0

Velocities

1 -2.2617832547010415e-07 -1.2729971260777024e-06 3.7164812425632937e-07
2 3.660319467647226e-07 9.534773072981132e-07 7.807979102599158e-09
3 3.7925049078233217e-07 6.11177666855989e-08 -4.5295890869535164e-07
4 -1.697269181073706e-06 4.891595346498601e-07 -5.137740481862417e-07
5 1.6889555826983294e-06 -3.3318546250030555e-07 8.106403787048088e-07
6 -1.0226395453550155e-07 3.282964991508927e-07 5.706835468256333e-07
7 8.4511684319349e-09 3.4479772568731784e-08 -9.294716994389792e-07
8 -4.169777180534253e-07 -2.603482908739646e-07 1.354246053561142e-07
