LAMMPS data file via write_data, version 7 Feb 2024, timestep = 4832, units = metal

8 atoms
1 atom types

0 5.76 xlo xhi
0 5.76 ylo yhi
0 2.88 zlo zhi

Masses

1 51.9961

Atoms # atomic

1 1 1.1795560113689465 2.5573465138016958 2.797784575808535 0 0 -1
2 1 4.565199318671473 2.330818126656833 2.797711899758816 0 0 0
3 1 0.03064255752495119 2.0413706636351088 0.7239404935129315 1 0 0
4 1 0.6462710817668414 3.073412805546418 1.5250463044777613 0 0 0
5 1 4.989936008739434 2.9421625612459703 1.5244321507755938 0 0 0
6 1 5.691977778194195 4.649156534651527 2.398054316896308 -1 0 0
7 1 5.673891828257218 3.2601962682130856 2.7926204534096137 0 0 0
8 1 0.041307925982056626 1.922134082479365 2.1603572891562215 0 0 0

Velocities

1 -1.3900871294262954e-06 -3.014317816812561e-05 1.175658916667497e-06
2 -5.087055370306241e-06 2.9179093126440105e-05 -2.404954608727944e-07
3 -1.4032519289356048e-05 -1.2054712097041739e-06 -3.5087355881812937e-06
4 1.379248347430491e-05 -1.60673418762071e-05 6.957331216551672e-07
5 9.158065350687213e-06 1.9661905389803664e-05 1.0932355351009208e-06
6 -3.870307567688213e-06 4.862565598828425e-07 -4.287570523078968e-06
7 1.75795377525547e-05 -4.736356826557753e-07 9.794451500557576e-07
8 -1.615011724649244e-05 -1.43762814762167e-06 4.092728839897633e-06
