LAMMPS data file via write_data, version 7 Feb 2024, timestep = 2430, units = metal

8 atoms
1 atom types

0 5.76 xlo xhi
0 5.76 ylo yhi
0 2.88 zlo zhi

Masses

1 51.9961

Atoms # atomic

1 1 2.16763675158994 4.020578265023016 0.39630707436391305 0 0 0
2 1 3.8218974876874516 5.211043909998946 1.4461480735386263 0 -1 0
3 1 4.357522833199041 3.993936282784111 2.132078428482446 0 0 0
4 1 3.041185598485268 4.0053679765520975 1.5444635374533338 0 0 0
5 1 3.2786186238700394 4.749685499391574 2.7541503783894696 0 0 0
6 1 3.261893728308957 3.261820863497422 2.7551341837094907 0 0 0
7 1 4.186567822455529 3.9967597055204314 0.7064360143886759 0 0 0
8 1 3.8015008973257576 2.7852991478912608 1.447187238497435 0 0 0

Velocities

1 2.6196079009890276e-09 1.6847383844394794e-07 -8.835555670181722e-11
2 1.2356058269612976e-07 -4.3370692853994055e-08 -1.0736725823713552e-08
3 -5.450077716368162e-10 -9.601662036108916e-08 5.448298882249631e-09
4 -1.9835430762357484e-09 4.0837157553713575e-08 3.3245950046590576e-11
5 9.256575052792426e-08 2.801921430804242e-08 -1.4002574232460484e-09
6 -9.006593552053181e-08 3.245675656330272e-08 2.273248822905316e-09
7 -1.5252393813382572e-09 -8.598758632703325e-08 -6.525780056477751e-09
8 -1.246262057248031e-07 -4.441207920681962e-08 1.0996329559298747e-08
