LAMMPS data file via write_data, version 7 Feb 2024, timestep = 4207, units = metal

8 atoms
1 atom types

0 5.76 xlo xhi
0 5.76 ylo yhi
0 2.88 zlo zhi

Masses

1 51.9961

Atoms # atomic

1 1 3.167969737212129 2.2338415091616284 2.191968556389081 0 0 0
2 1 3.8929176656220927 3.283969018456403 2.811470889054823 0 0 0
3 1 1.9214130944359982 1.8527565752996353 1.4776160016799702 0 0 0
4 1 4.106960793207306 2.9989879872603473 1.3934350626850738 0 0 0
5 1 4.465141650019927 1.652345102972269 1.8230773993905813 0 0 0
6 1 4.159345753322158 1.9159208824091878 0.38195734117931346 0 0 0
7 1 2.939681340295856 2.5299551118807497 0.7529094055325674 0 0 0
8 1 3.2109512193867626 1.168054234994189 1.1907270760326443 0 0 0

Velocities

1 3.679286931894321e-06 -8.826834414003263e-06 9.761863077951555e-06
2 -3.9749965476868485e-05 1.0803507827694579e-05 -4.303342754690744e-07
3 8.13519673285094e-06 -5.007909921922541e-05 3.1481314924382462e-06
4 -2.632611156570053e-05 2.257125468654183e-05 -1.9545288709466378e-07
5 2.061434109984194e-05 3.2570468477502066e-05 1.469548462842401e-06
6 7.455630009928647e-06 2.449164093384121e-05 -5.236289652066278e-06
7 -8.175552465346105e-06 -1.8019855310479277e-05 -8.062644166967665e-06
8 3.4367174696455345e-05 -1.3511083032139122e-05 -4.5482203818258613e-07
