LAMMPS data file via write_data, version 7 Feb 2024, timestep = 811, units = metal

8 atoms
1 atom types

0 5.76 xlo xhi
0 5.76 ylo yhi
0 2.88 zlo zhi

Masses

1 51.9961

Atoms # atomic

1 1 1.7462467379358504 3.922785890544252 2.0369996601517846 0 0 0
2 1 1.7462467379426048 1.059777180782426 2.2141162416375715 1 0 0
3 1 1.7462467379424047 0.41199977622277506 0.8913008508809828 0 0 0
4 1 1.7462467379389683 1.8285242227471912 0.6174042838634336 0 0 0
5 1 1.7462467379356605 3.275481018278012 0.6972410916246791 0 0 0
6 1 1.7462467379418514 5.3690570480096085 2.1354423218120644 0 -1 0
7 1 1.7462467379360307 2.477596918408959 1.9489921950720372 0 0 0
8 1 1.7462467379390387 4.727728632549137 0.7894863604832487 0 0 0

Velocities

1 7.241750754853982e-11 1.5092891074805963e-08 -1.613267609562377e-08
2 -8.39256784785595e-11 2.0508983965203708e-08 1.7237197391959706e-08
3 -7.800819573592444e-11 1.4370251944983777e-08 3.1687110728941676e-09
4 4.08506167735604e-12 -2.0489310387855138e-08 1.912084892795184e-09
5 7.983965052087921e-11 8.427746938918927e-09 -4.8913645881313026e-09
6 -6.717233497081515e-11 -1.77023172571299e-08 -1.7996918595996099e-09
7 7.472305113091632e-11 -1.1648590140108379e-08 1.3652831926164465e-08
8 -1.9590616923922964e-12 -8.559649304240643e-09 -1.3147092148886935e-08
