ats_3.data (written by ASE) 

9 	 atoms 
1  atom types
0.0      6.8575725445026219  xlo xhi
0.0      6.8575725445026219  ylo yhi
0.0      2.2858575148342073  zlo zhi
     2.2858575148342073                       0                       0  xy xz yz


Atoms 

     1   1     0.85227804484979286     0.60146004812600273      2.0915880557329509
     2   1      2.7163043934323636      2.3528351980301023      1.9937058899806963
     3   1      6.9490521047604563      3.1592339954510047     0.65954433005400681
     4   1      5.4613944045517169       1.208835966015501      1.2543517955446395
     5   1      8.1117185950986759      3.9564555377213884     0.35913492069817893
     6   1      7.2234907128970622      4.9483674608405632      2.1870048155139923
     7   1      3.4991606377627344      4.4015609367350415     0.21330666736986803
     8   1        5.73884318763454       3.879212448388722      1.3576581646406058
     9   1      2.9925833929101064     0.98853403403213669     0.71465992060936356
