ats_6.data (written by ASE) 

8 	 atoms 
1  atom types
0.0      4.5717150296684146  xlo xhi
0.0      4.5717150296684146  ylo yhi
0.0      4.5717150296684146  zlo zhi
     2.2858575148342073      2.2858575148342073                       0  xy xz yz


Atoms 

     1   1      2.6786166507311968      0.5489009667695709      1.5194872368105901
     2   1       4.169100563365407      1.6195236640100468      0.7339645014083831
     3   1      4.5679589410161947      3.9142136477512408      4.4884053123800198
     4   1      5.2688164278931966       2.331887745600068      1.5294450213853901
     5   1      5.3932056389673182      1.4061695622352539      4.0016065446626596
     6   1      4.2115333099895764      3.0927186998064924      2.7786928973698282
     7   1      4.3537755068347925      2.4755248232348355      4.5012062132269053
     8   1      3.5948383940850239      4.1814047852686658      1.5600802381495913
