ats_5.data (written by ASE) 

7 	 atoms 
1  atom types
0.0      2.2858575148342073  xlo xhi
0.0      16.001002603839453  ylo yhi
0.0      2.2858575148342073  zlo zhi
     11.429287574171036                       0                       0  xy xz yz


Atoms 

     1   1      8.1424077749868005      7.3194836708351003      1.5563075325769176
     2   1      12.636519662529965      13.773311044856625      1.7811331570108335
     3   1      8.3790262033858891      8.8363036559727668     0.11339884387808317
     4   1      10.662684497351872      11.608117456146809     0.48154140039827298
     5   1      1.2515379069880463     0.22235865203731286      2.2391610266290343
     6   1      4.8204132543379394      3.1674280404806776     0.83939269404650163
     7   1       5.576529549183852      5.4839171084111555     0.97599421151369459
