ats_0.data (written by ASE) 

4 	 atoms 
1  atom types
0.0      4.5717150296684146  xlo xhi
0.0      4.5717150296684146  ylo yhi
0.0      2.2858575148342073  zlo zhi


Atoms 

     1   1       4.121025217918568      4.1756814460944618     0.15220673794145664
     2   1      1.7765735380048804      2.2411910527821197      1.2554699109529655
     3   1     0.28575173214921612      1.0747451667969026      1.8064936568000283
     4   1      1.0669898453148445      3.4389032744916226     0.53122153964113095
