ats_2.data (written by ASE) 

6 	 atoms 
1  atom types
0.0      6.8575725445026219  xlo xhi
0.0      4.5717150296684146  ylo yhi
0.0      2.2858575148342073  zlo zhi


Atoms 

     1   1       6.463274070775018      3.7563452197084501      1.9256904049019987
     2   1      1.2670208452997245      3.2660154404313952      2.2420463434020372
     3   1      6.8003921122638138      0.7785715871877058      1.2400118768354647
     4   1      2.6035511521627601      1.4461738001607967      1.0689562011368063
     5   1      3.6015294317494821      3.9229551910633331      1.3370966615452595
     6   1      5.0353307070505071      1.8236000162578647     0.37857202795553713
