ats_7.data (written by ASE) 

9 	 atoms 
1  atom types
0.0      6.8575725445026219  xlo xhi
0.0      6.8575725445026219  ylo yhi
0.0      2.2858575148342073  zlo zhi
     2.2858575148342073                       0                       0  xy xz yz


Atoms 

     1   1      6.2719846150619505      3.5059755444459304     0.24448794810709673
     2   1      1.3691452118859839      3.8671210487269034      2.1317208271032517
     3   1     0.12625724267683047     0.16844340210816178     0.73443477876100061
     4   1      5.9056808365210953      5.8207611787544105     0.66072228583268322
     5   1      4.4567881658324442      5.7995556183538364      0.8644728321132964
     6   1      7.7312315817608814      5.6245081599209632      2.0577966763723743
     7   1      4.9313172674901686      1.4075154797679446     0.55234776135924946
     8   1      1.1109649248627882      1.1204514684883162      2.1288741846247703
     9   1      5.7085685332660416       2.397817099149445      1.7755395879233316
