mass 1 51.996100
pair_style hybrid/overlay soft 1.650 mliap model mliappy LATER descriptor ace coupling_coefficients.yace
Loading python model deferred.
pair_coeff * * soft 100.0
pair_coeff * * mliap   Cr

thermo 10
velocity all create 0.0001 4928459 dist gaussian
Loading python model complete.
min_style  fire
min_modify integrator eulerexplicit tmax 10.0 tmin 0.0 delaystep 5 dtgrow 1.1 dtshrink 0.5 alpha0 0.1 alphashrink 0.99 vdfmax 100000 halfstepback no initialdelay no
minimize 1e-12 1e-12 10000 100000
Neighbor list info ...
  update: every = 1 steps, delay = 0 steps, check = yes
  max neighbors/atom: 2000, page size: 100000
  master list distance cutoff = 13.209389
  ghost atom cutoff = 13.209389
  binsize = 6.6046944, bins = 2 1 1
  2 neighbor lists, perpetual/occasional/extra = 2 0 0
  (1) pair soft, perpetual, half/full trim from (2)
      attributes: half, newton on, cut 3.65
      pair build: halffull/trim/newton/tri
      stencil: none
      bin: none
  (2) pair mliap, perpetual
      attributes: full, newton on
      pair build: full/bin/atomonly
      stencil: full/bin/3d
      bin: standard
  Parameters for fire:
    dmax  delaystep dtgrow dtshrink alpha0 alphashrink tmax tmin   integrator   halfstepback   abcfire  
     0.1      5      1.1     0.5     0.1      0.99      10   0   eulerexplicit       no          no     
Per MPI rank memory allocation (min/avg/max) = 4.014 | 4.014 | 4.014 Mbytes
   Step          Temp          E_pair         E_mol          TotEng         Press     
         0   0              4.0892803      0              4.0892803      943875       
        10   0.53484289    -7.1445971      0             -7.1441131      65159.05     
        20   86.955525     -7.4230003      0             -7.3443211      59300.579    
        30   866.46436     -7.8700188      0             -7.0860236      147668.73    
        40   8917.8838     -12.837143      0             -4.768054       155028.91    
        50   651.62254     -13.931128      0             -13.341527      18056.344    
        60   141.94999     -16.744834      0             -16.616395      181185.84    
        70   342.62382     -17.142141      0             -16.832128      5341.992     
        80   1854.8501     -18.276214      0             -16.597907      176317.54    
        90   187.6877      -19.211709      0             -19.041886      29860.392    
       100   51.992371     -19.543338      0             -19.496295      40050.64     
       110   302.55196     -19.790352      0             -19.516596      88723.407    
       120   136.77454     -20.243878      0             -20.120122      208204.53    
       130   79.901051     -20.552875      0             -20.480579      170174.45    
       140   278.77225     -20.684672      0             -20.432433      188358.37    
       150   1.7412319     -20.931476      0             -20.9299        177962.49    
       160   69.380877     -20.995815      0             -20.933038      232586.46    
       170   8.4431064     -21.252653      0             -21.245013      266132.36    
       180   21.244131     -21.318749      0             -21.299527      218679.28    
       190   134.9328      -21.377874      0             -21.255784      213871.64    
       200   49.947742     -21.776072      0             -21.730879      192271.82    
       210   36.195341     -21.809718      0             -21.776967      189139.75    
       220   308.28249     -22.047337      0             -21.768396      157991.21    
       230   30.632474     -22.017854      0             -21.990137      171514.04    
       240   136.46972     -22.123208      0             -21.999727      176211.41    
       250   2.6699201     -22.153899      0             -22.151483      205302.27    
       260   27.242867     -22.177537      0             -22.152887      190241.78    
       270   162.77733     -22.382215      0             -22.234931      190139.01    
       280   47.420622     -22.386386      0             -22.343478      203511.8     
       290   2.4586118     -22.43105       0             -22.428825      223091.51    
       300   29.749479     -22.454502      0             -22.427584      227175.18    
       310   225.20661     -23.246808      0             -23.043036      223005.15    
       320   126.30206     -22.871855      0             -22.757575      191515.86    
       330   63.895249     -23.009604      0             -22.95179       191964.99    
       340   4.2495276     -23.015596      0             -23.011751      191417.13    
       350   33.668481     -23.041333      0             -23.010869      202081.2     
       360   177.79296     -23.157702      0             -22.996831      221810.4     
       370   31.484636     -24.479573      0             -24.451085      256374.4     
       380   6.5302949     -24.503511      0             -24.497602      241880.32    
       390   33.734261     -24.524923      0             -24.4944        231994.32    
       400   11.976985     -24.53535       0             -24.524513      237810.64    
       410   6.5140865     -24.570952      0             -24.565058      239505.71    
       420   3.9372101     -24.575855      0             -24.572292      240453.32    
       430   27.812253     -24.598223      0             -24.573058      240825.79    
       440   0.24727446    -24.660138      0             -24.659915      237026.84    
       450   7.6978177     -24.667021      0             -24.660055      243217.09    
       460   6.450951      -24.689856      0             -24.684019      244266.15    
       470   3.1769432     -24.693419      0             -24.690544      244241.53    
       480   17.991032     -24.70763       0             -24.691351      243544.01    
       490   4.5907773     -24.716466      0             -24.712312      250797.54    
       500   3.4600113     -24.726289      0             -24.723158      250545.47    
       510   32.435529     -24.743782      0             -24.714434      257514       
       520   1.1046019     -24.750501      0             -24.749502      252858.88    
       530   12.106493     -24.760129      0             -24.749175      254795.96    
       540   8.174942      -24.800075      0             -24.792678      264420.92    
       550   0.15584117    -24.817569      0             -24.817428      263586.18    
       560   3.367399      -24.857815      0             -24.854769      259681.51    
       570   25.671516     -24.876989      0             -24.853761      267246.08    
       580   1.7929408     -24.898957      0             -24.897334      271099.7     
       590   13.525112     -24.908778      0             -24.896541      273598.67    
       600   8.3589614     -24.927997      0             -24.920434      277983.89    
       610   4.1780359     -24.931453      0             -24.927673      276238.29    
       620   35.988339     -24.9581        0             -24.925537      280010.52    
       630   1.103861      -24.989475      0             -24.988476      284689.03    
       640   16.689269     -25.00279       0             -24.987689      288515.67    
       650   11.326234     -25.069272      0             -25.059024      292692.27    
       660   9.6168419     -25.080026      0             -25.071324      295752.42    
       670   85.139421     -25.126999      0             -25.049963      298002.09    
       680   7.6822298     -25.145954      0             -25.139003      310718.23    
       690   37.6149       -25.17194       0             -25.137905      312887.92    
       700   32.168618     -25.227955      0             -25.198848      320948.06    
       710   12.974753     -25.238721      0             -25.226981      312597.88    
       720   110.45978     -25.280584      0             -25.180638      321055.74    
       730   23.926009     -25.368095      0             -25.346447      316703.38    
       740   2.7783337     -25.432754      0             -25.43024       334435.23    
       750   34.807371     -25.460556      0             -25.429062      336472.29    
       760   166.90449     -25.591527      0             -25.440508      398288.77    
       770   34.540165     -25.770956      0             -25.739703      415370.91    
       780   15.010543     -25.803939      0             -25.790357      400074.47    
       790   71.08161      -25.856627      0             -25.792311      389891.47    
       800   169.05206     -26.023197      0             -25.870235      345508.9     
       810   0.31559705    -26.130606      0             -26.13032       375786.4     
       820   27.256092     -26.152762      0             -26.1281        404256.86    
       830   170.35217     -26.288747      0             -26.134609      403320.94    
       840   11.07316      -26.322123      0             -26.312104      427699.61    
       850   12.61788      -26.337465      0             -26.326048      451474.33    
       860   2.6086975     -26.341137      0             -26.338776      450606.97    
       870   15.060939     -26.352613      0             -26.338986      447879.16    
       880   0.40793425    -26.363413      0             -26.363044      445015.6     
       890   4.8834574     -26.367259      0             -26.36284       449434.36    
       900   1.0735479     -26.381684      0             -26.380713      450656.14    
       910   1.2845741     -26.38326       0             -26.382098      452232.21    
       920   10.26017      -26.38349       0             -26.374206      448653.82    
       930   2.3816393     -26.397671      0             -26.395516      447142.3     
       940   0.2049839     -26.399687      0             -26.399501      458170.82    
       950   2.1265608     -26.401361      0             -26.399436      457287.15    
       960   14.124087     -26.412166      0             -26.399386      468281.12    
       970   0.43986782    -26.419108      0             -26.41871       462118.65    
       980   4.5665122     -26.422797      0             -26.418665      464795.97    
       990   0.07911627    -26.429914      0             -26.429842      462903.1     
      1000   1.9169607     -26.431445      0             -26.42971       465101.15    
      1010   2.5610147     -26.437595      0             -26.435277      461253.97    
      1020   0.0091328113  -26.438774      0             -26.438766      466715.13    
      1030   0.38132831    -26.439088      0             -26.438743      468542.67    
      1040   3.3297601     -26.441668      0             -26.438655      469121.05    
      1050   3.8562627     -26.44979       0             -26.446301      469256.28    
      1060   0.89471371    -26.45054       0             -26.449731      473692.36    
      1070   12.200274     -26.450314      0             -26.439275      455224.05    
      1080   0.49231152    -26.45693       0             -26.456484      472789.81    
      1090   4.3580185     -26.459246      0             -26.455303      469814.29    
      1100   0.11620079    -26.460034      0             -26.459929      475937.86    
      1110   1.5653973     -26.461273      0             -26.459856      476961.71    
      1120   0.48070343    -26.460722      0             -26.460287      472901.93    
      1130   0.48629747    -26.469122      0             -26.468682      476598.3     
      1140   0.24349539    -26.464399      0             -26.464178      478995.52    
      1150   0.28392391    -26.464857      0             -26.464601      482395.56    
      1160   1.7381538     -26.46623       0             -26.464657      485771.9     
      1170   2.7839569     -26.469891      0             -26.467372      479367.64    
      1180   0.028341589   -26.470543      0             -26.470518      486710.57    
      1190   0.42439557    -26.470898      0             -26.470514      483683.77    
      1200   3.3132492     -26.473425      0             -26.470427      483147.47    
      1210   0.081214878   -26.476082      0             -26.476008      485043.83    
      1220   1.191017      -26.477044      0             -26.475966      487069.01    
      1230   1.0580682     -26.480137      0             -26.479179      476450.34    
      1240   0.42017604    -26.483285      0             -26.482905      488830.33    
      1250   5.1585148     -26.487411      0             -26.482743      489314.04    
      1260   59.339993     -26.475222      0             -26.421529      454570.19    
      1270   1.3674432     -26.503597      0             -26.50236       496247.22    
      1280   0.19219564    -26.503919      0             -26.503745      493508.99    
      1290   1.653983      -26.505207      0             -26.503711      495092       
      1300   11.334635     -26.513591      0             -26.503335      488085.68    
      1310   1.2233839     -26.521021      0             -26.519914      498270.4     
      1320   7.0484944     -26.525229      0             -26.518851      493133.61    
      1330   3.0360184     -26.528984      0             -26.526237      497399.01    
      1340   1.4521564     -26.534644      0             -26.53333       503846.88    
      1350   1.2787912     -26.537912      0             -26.536754      501049.82    
      1360   9.1394721     -26.543954      0             -26.535684      497325.13    
      1370   0.43952774    -26.546513      0             -26.546115      498213.58    
      1380   3.4867607     -26.549267      0             -26.546113      502401.05    
      1390   1.4564791     -26.561079      0             -26.559761      487317.87    
      1400   3.8146325     -26.566443      0             -26.562991      498744.36    
      1410   1.1210861     -26.56733       0             -26.566315      503455.49    
      1420   6.9535803     -26.572801      0             -26.566509      499661.56    
      1430   4.575278      -26.625992      0             -26.621852      504787.43    
      1440   2.4147932     -26.628046      0             -26.625861      496772.38    
      1450   22.66171      -26.644894      0             -26.624389      490145.37    
      1460   0.86967633    -26.659137      0             -26.65835       500799.71    
      1470   13.583438     -26.670141      0             -26.657851      500061.5     
      1480   76.956443     -26.725157      0             -26.655525      517750.79    
      1490   1.0441431     -26.732999      0             -26.732054      506042.94    
      1500   6.9935451     -26.738849      0             -26.732521      494592.31    
      1510   74.267911     -26.780942      0             -26.713743      503125.93    
      1520   33.921599     -26.795228      0             -26.764535      490970.71    
      1530   1.6785495     -26.797808      0             -26.79629       499254.87    
      1540   15.182602     -26.809528      0             -26.795791      500525.18    
      1550   135.43651     -26.902547      0             -26.780001      476625.36    
      1560   8.0832467     -26.911139      0             -26.903825      483984.58    
      1570   61.434786     -26.911776      0             -26.856189      492127.44    
      1580   2.048558      -26.924682      0             -26.922829      493904.69    
      1590   22.252997     -26.942078      0             -26.921943      493650.3     
      1600   371.45273     -27.067147      0             -26.731049      449006.56    
      1610   8.8063549     -27.084169      0             -27.076201      462575.57    
      1620   3.7594198     -27.122897      0             -27.119496      436693.6     
      1630   5.2397019     -26.230933      0             -26.226192      486221.37    
      1640   32.069028     -27.163998      0             -27.134981      496288.66    
      1650   1.0014262     -27.199453      0             -27.198547      476291.99    
      1660   12.523887     -27.210877      0             -27.199545      447015.7     
      1670   6.007282      -27.254756      0             -27.24932       441883.67    
      1680   4.6877646     -27.262846      0             -27.258604      462648.92    
      1690   31.83975      -27.287679      0             -27.25887       469086.34    
      1700   101.73706     -27.378897      0             -27.286844      449096.22    
      1710   0.49023205    -27.382593      0             -27.382149      460723.22    
      1720   8.7492266     -27.390126      0             -27.382209      437871.31    
      1730   55.322084     -27.430936      0             -27.380879      440725.4     
      1740   1.0120998     -27.104439      0             -27.103523      464515.13    
      1750   8.271842      -27.111254      0             -27.103769      454006.74    
      1760   72.285276     -27.143748      0             -27.078343      477479.82    
      1770   9.8056619     -27.157911      0             -27.149039      449968.57    
      1780   1.9049376     -27.159332      0             -27.157609      450187.06    
      1790   11.995626     -27.168429      0             -27.157576      452457.66    
      1800   4.4515601     -27.199444      0             -27.195416      443546.81    
      1810   2.8876833     -27.20222       0             -27.199607      444267.46    
      1820   25.761352     -27.222526      0             -27.199216      450142.84    
      1830   6.1831275     -27.241081      0             -27.235486      451402.04    
      1840   0.56447057    -27.246235      0             -27.245724      432762.09    
      1850   5.6505771     -27.25069       0             -27.245577      435270.47    
      1860   40.176705     -27.28082       0             -27.244467      412588.67    
      1870   1.3153644     -27.300197      0             -27.299007      424267.02    
      1880   13.145849     -27.31076       0             -27.298865      422628.64    
      1890   0.14771106    -27.331351      0             -27.331217      422134.94    
      1900   6.5216126     -27.765507      0             -27.759607      401260.07    
      1910   70.772836     -27.368907      0             -27.304871      399623.51    
      1920   3.0767        -27.3763        0             -27.373516      408915.31    
      1930   0.52559802    -27.38405       0             -27.383575      406939.95    
      1940   0.66125097    -27.387192      0             -27.386593      414284.59    
      1950   6.5279982     -27.392429      0             -27.386522      413742.72    
      1960   15.743128     -27.411436      0             -27.397191      393230.54    
      1970   0.13860456    -27.414536      0             -27.414411      401087.28    
      1980   1.3277994     -27.415699      0             -27.414497      409164.12    
      1990   8.6775103     -27.42204       0             -27.414188      416609.68    
      2000   0.99240859    -27.427763      0             -27.426865      409304.86    
      2010   0.20867767    -27.428393      0             -27.428204      403681.11    
      2020   1.9422617     -27.429918      0             -27.428161      404996.47    
      2030   12.174522     -27.438873      0             -27.427857      390841.84    
      2040   0.64578609    -27.445842      0             -27.445257      400643.16    
      2050   4.5125304     -27.449067      0             -27.444984      396814.86    
      2060   1.8546487     -27.451273      0             -27.449595      397876.15    
      2070   9.6559298     -27.926992      0             -27.918255      384721.33    
      2080   0.030280958   -27.928105      0             -27.928077      374209.24    
      2090   0.81458046    -27.928779      0             -27.928042      378685.57    
      2100   5.7426345     -27.933213      0             -27.928017      375566.56    
      2110   0.07854101    -27.938749      0             -27.938678      376547.9     
      2120   1.4625476     -27.939993      0             -27.938669      371636.45    
      2130   15.458245     -27.941377      0             -27.92739       395302.15    
      2140   0.40067564    -27.963627      0             -27.963264      370720.55    
      2150   4.6495134     -27.967271      0             -27.963064      371425.9     
      2160   0.6171637     -27.971283      0             -27.970725      351419.8     
      2170   0.31113063    -27.975847      0             -27.975566      368537.23    
      2180   1.1818186     -27.976657      0             -27.975588      367568.05    
      2190   0.43969896    -27.978133      0             -27.977735      367911.43    
      2200   0.44746349    -27.978962      0             -27.978557      362778.34    
      2210   0.082357918   -28.005647      0             -28.005572      362720       
      2220   0.92913628    -27.97996       0             -27.979119      366473.9     
      2230   5.1277756     -28.008357      0             -28.003717      353240.12    
      2240   0.0034291461  -28.010215      0             -28.010212      359933.84    
      2250   0.12758962    -28.010318      0             -28.010203      360988.47    
      2260   1.023801      -28.011117      0             -28.010191      361821.53    
      2270   0.25974798    -27.012104      0             -27.011869      385108.32    
      2280   0.14838145    -27.012947      0             -27.012813      377355.11    
      2290   0.93690675    -27.013718      0             -27.01287       383094.4     
      2300   5.6719734     -26.999827      0             -26.994695      385426.09    
      2310   1.2225478     -27.000512      0             -26.999406      387827.13    
      2320   0.1635192     -27.000657      0             -27.000509      385043.23    
      2330   0.61403469    -27.001084      0             -27.000528      386667.76    
      2340   1.6018916     -27.987862      0             -27.986413      373169.92    
      2350   0.84597196    -27.971085      0             -27.97032       373378.56    
      2360   0.26813836    -27.971293      0             -27.971051      371484.63    
      2370   0.75134351    -27.971821      0             -27.971141      370781.45    
      2380   1.9818637     -27.001435      0             -26.999642      383888.28    
      2390   0.19522476    -27.001781      0             -27.001604      387685.82    
      2400   0.0025477272  -27.002325      0             -27.002323      381261.71    
      2410   0.84780278    -27.970785      0             -27.970018      360653.78    
      2420   0.002640594   -27.971252      0             -27.971249      363354.05    
      2430   0.0061397089  -27.002356      0             -27.00235       388177.48    
      2440   0.00016272221 -27.002359      0             -27.002359      388141.2     
      2450   0.00050455673 -27.00236       0             -27.00236       388136.89    
      2460   7.6762524e-07 -27.00236       0             -27.00236       388136.85    
      2470   2.1322866e-08 -27.00236       0             -27.00236       388136.85    
      2480   8.012485e-08  -27.971312      0             -27.971312      363670.98    
      2490   2.816889e-09  -27.00236       0             -27.00236       388136.85    
      2500   4.8904323e-10 -27.00236       0             -27.00236       388136.85    
      2510   1.3314202e-11 -27.971312      0             -27.971312      363670.98    
      2520   8.1055757e-14 -27.00236       0             -27.00236       388136.85    
      2530   2.5172163e-13 -27.971312      0             -27.971312      363670.98    
      2531   3.5248021e-13 -27.971312      0             -27.971312      363670.98    
Loop time of 24.9937 on 1 procs for 2531 steps with 8 atoms

99.6% CPU use with 1 MPI tasks x 1 OpenMP threads

Minimization stats:
  Stopping criterion = energy tolerance
  Energy initial, next-to-last, final = 
      4.08928025993109  -27.9713123785001  -27.9713123785001
  Force two-norm initial, final = 124.96746 1.3437762
  Force max component initial, final = 65.786522 0.72842171
  Final line search alpha, max atom move = 0 0
  Iterations, force evaluations = 2531 2748

MPI task timing breakdown:
Section |  min time  |  avg time  |  max time  |%varavg| %total
---------------------------------------------------------------
Pair    | 24.874     | 24.874     | 24.874     |   0.0 | 99.52
Neigh   | 0.00034658 | 0.00034658 | 0.00034658 |   0.0 |  0.00
Comm    | 0.07518    | 0.07518    | 0.07518    |   0.0 |  0.30
Output  | 0.0078739  | 0.0078739  | 0.0078739  |   0.0 |  0.03
Modify  | 0          | 0          | 0          |   0.0 |  0.00
Other   |            | 0.03594    |            |       |  0.14

Nlocal:              8 ave           8 max           8 min
Histogram: 1 0 0 0 0 0 0 0 0 0
Nghost:           3072 ave        3072 max        3072 min
Histogram: 1 0 0 0 0 0 0 0 0 0
Neighs:             58 ave          58 max          58 min
Histogram: 1 0 0 0 0 0 0 0 0 0
FullNghs:         6472 ave        6472 max        6472 min
Histogram: 1 0 0 0 0 0 0 0 0 0

Total # of neighbors = 6472
Ave neighs/atom = 809
Neighbor list builds = 2
Dangerous builds = 0
write_data ./StructureDump/sample.8.dat 
System init for write_data ...
variable etot equal etotal
variable ptot equal press
variable pairp equal epair
variable numat equal atoms
run 0
WARNING: No fixes with time integration, atoms won't move (src/verlet.cpp:60)
Per MPI rank memory allocation (min/avg/max) = 4.018 | 4.018 | 4.018 Mbytes
   Step          Temp          E_pair         E_mol          TotEng         Press     
      2531   3.5248021e-13 -27.971312      0             -27.971312      403577.9     
Loop time of 3.9373e-05 on 1 procs for 0 steps with 8 atoms

152.4% CPU use with 1 MPI tasks x 1 OpenMP threads

MPI task timing breakdown:
Section |  min time  |  avg time  |  max time  |%varavg| %total
---------------------------------------------------------------
Pair    | 0          | 0          | 0          |   0.0 |  0.00
Neigh   | 0          | 0          | 0          |   0.0 |  0.00
Comm    | 0          | 0          | 0          |   0.0 |  0.00
Output  | 0          | 0          | 0          |   0.0 |  0.00
Modify  | 0          | 0          | 0          |   0.0 |  0.00
Other   |            | 3.937e-05  |            |       |100.00

Nlocal:              8 ave           8 max           8 min
Histogram: 1 0 0 0 0 0 0 0 0 0
Nghost:           3128 ave        3128 max        3128 min
Histogram: 1 0 0 0 0 0 0 0 0 0
Neighs:             54 ave          54 max          54 min
Histogram: 1 0 0 0 0 0 0 0 0 0
FullNghs:         6474 ave        6474 max        6474 min
Histogram: 1 0 0 0 0 0 0 0 0 0

Total # of neighbors = 6474
Ave neighs/atom = 809.25
Neighbor list builds = 0
Dangerous builds = 0
print "${etot} ${pairp} ${ptot} ${numat} " append Summary.dat screen no
Total wall time: 0:00:25
