mass 1 51.996100
pair_style hybrid/overlay soft 1.650 mliap model mliappy LATER descriptor ace coupling_coefficients.yace
Loading python model deferred.
pair_coeff * * soft 100.0
pair_coeff * * mliap   Cr

thermo 10
velocity all create 0.0001 4928459 dist gaussian
Loading python model complete.
min_style  fire
min_modify integrator eulerexplicit tmax 10.0 tmin 0.0 delaystep 5 dtgrow 1.1 dtshrink 0.5 alpha0 0.1 alphashrink 0.99 vdfmax 100000 halfstepback no initialdelay no
minimize 1e-12 1e-12 10000 100000
Neighbor list info ...
  update: every = 1 steps, delay = 0 steps, check = yes
  max neighbors/atom: 2000, page size: 100000
  master list distance cutoff = 13.209389
  ghost atom cutoff = 13.209389
  binsize = 6.6046944, bins = 2 2 1
  2 neighbor lists, perpetual/occasional/extra = 2 0 0
  (1) pair soft, perpetual, half/full trim from (2)
      attributes: half, newton on, cut 3.65
      pair build: halffull/trim/newton/tri
      stencil: none
      bin: none
  (2) pair mliap, perpetual
      attributes: full, newton on
      pair build: full/bin/atomonly
      stencil: full/bin/3d
      bin: standard
  Parameters for fire:
    dmax  delaystep dtgrow dtshrink alpha0 alphashrink tmax tmin   integrator   halfstepback   abcfire  
     0.1      5      1.1     0.5     0.1      0.99      10   0   eulerexplicit       no          no     
Per MPI rank memory allocation (min/avg/max) = 4.035 | 4.035 | 4.035 Mbytes
   Step          Temp          E_pair         E_mol          TotEng         Press     
         0   0              17.209514      0              17.209514      1536312.1    
        10   21684.931     -4.1232808      0              18.300697      339512.36    
        20   43.641018     -4.373212       0             -4.3280836      4829.0616    
        30   555.33927     -4.8770016      0             -4.3027357     -48976.84     
        40   1536.1677     -6.944669       0             -5.3561469      52231.626    
        50   295.98645     -7.1307623      0             -6.8246883     -24360.852    
        60   40.654495     -8.7194027      0             -8.6773626     -137943.34    
        70   2455.0807     -10.847212      0             -8.3084589     -144535.92    
        80   19899.223     -22.507393      0             -1.9299812      130276.75    
        90   5653.2757     -26.727337      0             -20.881391     -233021.85    
       100   2524.3158     -29.026436      0             -26.416089     -760803.71    
       110   1004.0236     -31.411685      0             -30.373443     -728890.09    
       120   2148.2147     -37.867795      0             -35.646367     -945715.33    
       130   13876.58      -48.522107      0             -34.172598     -827606.76    
       140   716.37739     -55.079847      0             -54.339054     -1222770.1    
       150   6941.9549     -60.942904      0             -53.764359     -1192173.6    
       160   4524.0936     -69.053355      0             -64.375075     -418065.15    
       170   606.94926     -69.60267       0             -68.975035     -677077.96    
       180   1194.3898     -69.505738      0             -68.270642     -1009863.3    
       190   421.20431     -69.880066      0             -69.444506     -859871.57    
       200   127.23454     -69.871914      0             -69.740343     -870833.81    
       210   135.43574     -70.282773      0             -70.142722     -934606.12    
       220   42.70651      -70.443611      0             -70.399449     -924178.01    
       230   396.56942     -70.802468      0             -70.392383     -914360.76    
       240   530.22127     -69.354279      0             -68.805988     -1024593.3    
       250   153.32094     -69.508206      0             -69.34966      -956395.51    
       260   184.65554     -69.424619      0             -69.23367      -932198.82    
       270   45.994243     -69.467366      0             -69.419804     -948846.56    
       280   424.91868     -70.795759      0             -70.356358     -998990.84    
       290   12.527157     -72.546591      0             -72.533637     -977022.18    
       300   258.21616     -72.774975      0             -72.507959     -1002529.6    
       310   1.2409138     -73.047535      0             -73.046251     -1009472.5    
       320   63.301996     -73.112463      0             -73.047003     -1011961.2    
       330   400.16139     -73.412953      0             -72.999154     -994725.97    
       340   98.664934     -73.760285      0             -73.658258     -1035191.5    
       350   20.106266     -73.807641      0             -73.78685      -1029647.5    
       360   116.29298     -73.906871      0             -73.786615     -1033918.3    
       370   11.106732     -74.596206      0             -74.584721     -1078036.5    
       380   35.793981     -74.679127      0             -74.642113     -1074399.9    
       390   277.8199      -75.256142      0             -74.968854     -1107999.6    
       400   1.7133729     -75.422744      0             -75.420972     -1144241.6    
       410   54.907855     -75.478963      0             -75.422184     -1157171.6    
       420   52.80353      -75.153589      0             -75.098986     -1168292.7    
       430   24.713821     -75.182592      0             -75.157036     -1169841.3    
       440   113.84906     -75.740387      0             -75.622658     -1188851.3    
       450   2.0728786     -75.8105        0             -75.808356     -1196651.4    
       460   26.969265     -75.836677      0             -75.808788     -1200672.7    
       470   230.06911     -76.007366      0             -75.769456     -1221938      
       480   59.655309     -74.980694      0             -74.919006     -1186556.3    
       490   11.39065      -75.170238      0             -75.15846      -1212909.5    
       500   51.333617     -75.21227       0             -75.159187     -1235878.8    
       510   13.168871     -76.852619      0             -76.839001     -1271162.2    
       520   11.728261     -76.874075      0             -76.861947     -1280230.7    
       530   59.275545     -76.907068      0             -76.845772     -1375399.9    
       540   3.7723874     -75.57933       0             -75.575429     -1212710.3    
       550   30.397641     -75.565777      0             -75.534343     -1322933.4    
       560   51.107125     -74.471248      0             -74.418399     -1297225.5    
       570   0.25749111    -74.477486      0             -74.477219     -1296629.5    
       580   5.3597571     -74.482661      0             -74.477119     -1297426.9    
       590   28.947831     -74.506863      0             -74.476928     -1295892.5    
       600   0.80919198    -74.532981      0             -74.532145     -1304873.8    
       610   8.5367827     -74.541007      0             -74.532179     -1307156.6    
       620   4.2107656     -74.561189      0             -74.556835     -1316307.1    
       630   41.678474     -73.353941      0             -73.310842     -1288918      
       640   3.0956846     -73.360549      0             -73.357348     -1298898.4    
       650   0.69164704    -73.362107      0             -73.361392     -1299339.6    
       660   4.9376181     -73.366526      0             -73.36142      -1298249.8    
       670   34.216653     -73.392379      0             -73.356996     -1313437.5    
       680   54.650917     -73.437439      0             -73.380925     -1320915.3    
       690   3.9401707     -73.442949      0             -73.438874     -1324619      
       700   24.607667     -73.465369      0             -73.439923     -1325357.8    
       710   216.10504     -75.788969      0             -75.565499     -1265608      
       720   4.5259814     -76.872773      0             -76.868093     -1342241.3    
       730   18.877432     -76.893072      0             -76.873551     -1377240.7    
       740   10.056699     -76.103854      0             -76.093454     -1389393.3    
       750   1.6265802     -76.10567       0             -76.103988     -1384492      
       760   10.663851     -76.114975      0             -76.103948     -1373375.4    
       770   120.46191     -76.339233      0             -76.214666     -1400711.3    
       780   1.8132332     -76.354094      0             -76.352219     -1400295.2    
       790   0.26163936    -76.204985      0             -76.204715     -1389099.2    
       800   11.913834     -76.216101      0             -76.203782     -1398116.7    
       810   26.221566     -76.244702      0             -76.217587     -1409752.6    
       820   4.9473552     -76.249399      0             -76.244283     -1403482.7    
       830   40.018471     -76.284554      0             -76.243171     -1403532.7    
       840   8.7966605     -76.209709      0             -76.200613     -1409330.9    
       850   0.9269425     -76.218599      0             -76.21764      -1411665.2    
       860   10.44756      -76.228009      0             -76.217205     -1408339.5    
       870   79.999637     -76.409363      0             -76.326637     -1426096.3    
       880   19.506225     -75.122455      0             -75.102284     -1383005.7    
       890   2.4422906     -75.126028      0             -75.123503     -1392271.2    
       900   14.296338     -75.138918      0             -75.124135     -1418079.2    
       910   17.652141     -75.161504      0             -75.14325      -1399730.5    
       920   0.13755166    -75.165646      0             -75.165503     -1400698.6    
       930   2.1298092     -75.16767       0             -75.165468     -1402717.1    
       940   15.645654     -75.181201      0             -75.165023     -1404343.8    
       950   0.26195919    -75.194324      0             -75.194053     -1403018.3    
       960   4.724891      -75.198712      0             -75.193826     -1403811      
       970   2.5349324     -75.217275      0             -75.214654     -1403092.5    
       980   0.0073245224  -75.226651      0             -75.226643     -1402189.3    
       990   0.96948125    -75.227556      0             -75.226554     -1402020.1    
      1000   8.4381249     -75.235096      0             -75.226371     -1402025      
      1010   10.580545     -76.455678      0             -76.444736     -1456397      
      1020   0.099641518   -76.463316      0             -76.463213     -1432859.1    
      1030   2.2146702     -76.625497      0             -76.623207     -1419898.2    
      1040   10.492588     -76.636237      0             -76.625387     -1398380.1    
      1050   0.59753011    -76.651577      0             -76.650959     -1415825.6    
      1060   6.0425647     -76.657296      0             -76.651047     -1412186.3    
      1070   5.5117556     -76.668616      0             -76.662916     -1407922.9    
      1080   1.5123643     -76.669943      0             -76.668379     -1409686.7    
      1090   8.6947706     -76.677184      0             -76.668193     -1406544      
      1100   0.22565849    -76.679504      0             -76.679271     -1406169.9    
      1110   2.3246097     -76.681671      0             -76.679267     -1406207.6    
      1120   15.902228     -76.691435      0             -76.674991     -1405316.5    
      1130   4.6619752     -76.69741       0             -76.692589     -1403691.1    
      1140   0.34986855    -76.697741      0             -76.697379     -1403611.4    
      1150   3.4076422     -76.700749      0             -76.697225     -1403137.1    
      1160   0.37480924    -76.715996      0             -76.715608     -1400440      
      1170   1.3543493     -76.902543      0             -76.901143     -1413089.5    
      1180   9.2009563     -76.716107      0             -76.706592     -1399326.3    
      1190   2.6902667     -76.908404      0             -76.905622     -1406937      
      1200   1.0827511     -76.721656      0             -76.720537     -1401345.7    
      1210   0.16902965    -76.72216       0             -76.721985     -1402937.1    
      1220   0.84802576    -76.72295       0             -76.722073     -1402009.6    
      1230   0.011259545   -76.723868      0             -76.723856     -1406658      
      1240   0.15162422    -75.93314       0             -75.932983     -1384338.3    
      1250   0.0015090917  -75.933203      0             -75.933201     -1384379.5    
      1260   0.0015323078  -76.724363      0             -76.724361     -1405239.4    
      1270   4.4379201e-05 -76.72437       0             -76.72437      -1405240.4    
      1280   3.3551345e-06 -76.724361      0             -76.724361     -1405240.1    
      1290   4.0688342e-08 -75.933224      0             -75.933224     -1384398.5    
      1300   2.0477917e-10 -76.724361      0             -76.724361     -1405240.1    
      1310   7.9991861e-11 -75.933224      0             -75.933224     -1384398.5    
      1320   7.1992675e-12 -75.933224      0             -75.933224     -1384398.5    
      1330   6.3006089e-13 -76.724361      0             -76.724361     -1405240.1    
Loop time of 13.5865 on 1 procs for 1330 steps with 9 atoms

99.6% CPU use with 1 MPI tasks x 1 OpenMP threads

Minimization stats:
  Stopping criterion = energy tolerance
  Energy initial, next-to-last, final = 
      17.2095138062518  -76.7243614564387  -76.7243614564387
  Force two-norm initial, final = 168.33349 0.78135089
  Force max component initial, final = 88.59934 0.39610211
  Final line search alpha, max atom move = 0 0
  Iterations, force evaluations = 1330 1450

MPI task timing breakdown:
Section |  min time  |  avg time  |  max time  |%varavg| %total
---------------------------------------------------------------
Pair    | 13.528     | 13.528     | 13.528     |   0.0 | 99.57
Neigh   | 0.00016746 | 0.00016746 | 0.00016746 |   0.0 |  0.00
Comm    | 0.034945   | 0.034945   | 0.034945   |   0.0 |  0.26
Output  | 0.0041413  | 0.0041413  | 0.0041413  |   0.0 |  0.03
Modify  | 0          | 0          | 0          |   0.0 |  0.00
Other   |            | 0.01889    |            |       |  0.14

Nlocal:              9 ave           9 max           9 min
Histogram: 1 0 0 0 0 0 0 0 0 0
Nghost:           2616 ave        2616 max        2616 min
Histogram: 1 0 0 0 0 0 0 0 0 0
Neighs:             95 ave          95 max          95 min
Histogram: 1 0 0 0 0 0 0 0 0 0
FullNghs:         7088 ave        7088 max        7088 min
Histogram: 1 0 0 0 0 0 0 0 0 0

Total # of neighbors = 7088
Ave neighs/atom = 787.55556
Neighbor list builds = 1
Dangerous builds = 0
write_data ./StructureDump/sample.9.dat 
System init for write_data ...
variable etot equal etotal
variable ptot equal press
variable pairp equal epair
variable numat equal atoms
run 0
WARNING: No fixes with time integration, atoms won't move (src/verlet.cpp:60)
Per MPI rank memory allocation (min/avg/max) = 4.041 | 4.041 | 4.041 Mbytes
   Step          Temp          E_pair         E_mol          TotEng         Press     
      1330   6.3006089e-13 -76.724361      0             -76.724361     -1156720.5    
Loop time of 5.0742e-05 on 1 procs for 0 steps with 9 atoms

157.7% CPU use with 1 MPI tasks x 1 OpenMP threads

MPI task timing breakdown:
Section |  min time  |  avg time  |  max time  |%varavg| %total
---------------------------------------------------------------
Pair    | 0          | 0          | 0          |   0.0 |  0.00
Neigh   | 0          | 0          | 0          |   0.0 |  0.00
Comm    | 0          | 0          | 0          |   0.0 |  0.00
Output  | 0          | 0          | 0          |   0.0 |  0.00
Modify  | 0          | 0          | 0          |   0.0 |  0.00
Other   |            | 5.074e-05  |            |       |100.00

Nlocal:              9 ave           9 max           9 min
Histogram: 1 0 0 0 0 0 0 0 0 0
Nghost:           2589 ave        2589 max        2589 min
Histogram: 1 0 0 0 0 0 0 0 0 0
Neighs:            108 ave         108 max         108 min
Histogram: 1 0 0 0 0 0 0 0 0 0
FullNghs:         6962 ave        6962 max        6962 min
Histogram: 1 0 0 0 0 0 0 0 0 0

Total # of neighbors = 6962
Ave neighs/atom = 773.55556
Neighbor list builds = 0
Dangerous builds = 0
print "${etot} ${pairp} ${ptot} ${numat} " append Summary.dat screen no
Total wall time: 0:00:13
