mass 1 51.996100
pair_style hybrid/overlay soft 1.650 mliap model mliappy LATER descriptor ace coupling_coefficients.yace
Loading python model deferred.
pair_coeff * * soft 100.0
pair_coeff * * mliap   Cr

thermo 10
velocity all create 0.0001 4928459 dist gaussian
Loading python model complete.
min_style  fire
min_modify integrator eulerexplicit tmax 10.0 tmin 0.0 delaystep 5 dtgrow 1.1 dtshrink 0.5 alpha0 0.1 alphashrink 0.99 vdfmax 100000 halfstepback no initialdelay no
minimize 1e-12 1e-12 10000 100000
Neighbor list info ...
  update: every = 1 steps, delay = 0 steps, check = yes
  max neighbors/atom: 2000, page size: 100000
  master list distance cutoff = 13.209389
  ghost atom cutoff = 13.209389
  binsize = 6.6046944, bins = 2 1 1
  2 neighbor lists, perpetual/occasional/extra = 2 0 0
  (1) pair soft, perpetual, half/full trim from (2)
      attributes: half, newton on, cut 3.65
      pair build: halffull/trim/newton
      stencil: none
      bin: none
  (2) pair mliap, perpetual
      attributes: full, newton on
      pair build: full/bin/atomonly
      stencil: full/bin/3d
      bin: standard
  Parameters for fire:
    dmax  delaystep dtgrow dtshrink alpha0 alphashrink tmax tmin   integrator   halfstepback   abcfire  
     0.1      5      1.1     0.5     0.1      0.99      10   0   eulerexplicit       no          no     
Per MPI rank memory allocation (min/avg/max) = 3.896 | 3.896 | 3.896 Mbytes
   Step          Temp          E_pair         E_mol          TotEng         Press     
         0   0              6.0038716      0              6.0038716      1484892.7    
        10   0.97698967    -6.1856413      0             -6.1850099     -108825.77    
        20   154.13995     -6.2755386      0             -6.1759179     -95002.113    
        30   1407.7322     -7.0645907      0             -6.1547724     -139699.12    
        40   4261.3021     -10.299425      0             -7.5453426      69360.253    
        50   27.65578      -10.724679      0             -10.706805     -306433.94    
        60   548.98028     -11.285693      0             -10.930887     -260469.86    
        70   4503.5271     -13.363102      0             -10.452469     -227026.69    
        80   12503         -20.250797      0             -12.170099     -791439.73    
        90   1143.6231     -20.943673      0             -20.204548     -630519.8     
       100   26930.831     -22.712813      0             -5.307398       66315.528    
       110   7.2764251     -24.703855      0             -24.699153     -423622.44    
       120   373.44242     -24.975648      0             -24.734292     -201719.57    
       130   31.05709      -24.714551      0             -24.694479     -140921.55    
       140   52.983955     -24.87809       0             -24.843846     -196357.89    
       150   193.2896      -24.974057      0             -24.849134     -227023.7     
       160   92.2572       -25.852904      0             -25.793278     -235056.48    
       170   62.092142     -25.889369      0             -25.849239     -182880       
       180   425.46924     -25.310858      0             -25.035877     -156682.98    
       190   34.20894      -26.312467      0             -26.290357     -145871.59    
       200   11.894348     -26.38781       0             -26.380122     -223569.15    
       210   86.965528     -26.438952      0             -26.382746     -191413.41    
       220   647.9333      -26.795569      0             -26.376809     -212621.32    
       230   42.056663     -27.678979      0             -27.651797     -271457.56    
       240   313.45173     -27.878506      0             -27.675922     -221400.3     
       250   164.11219     -28.442875      0             -28.336809     -330027.83    
       260   121.41636     -28.516071      0             -28.437599     -276360.35    
       270   1229.967      -28.307114      0             -27.512186     -257318.09    
       280   65.292923     -28.514956      0             -28.472757     -327359.22    
       290   438.91993     -28.844078      0             -28.560404     -277620.81    
       300   2100.0382     -29.02644       0             -27.669184     -280057.49    
       310   9.3953098     -29.225962      0             -29.21989      -245725.7     
       320   121.33775     -29.298719      0             -29.220299     -300361.53    
       330   759.96576     -30.49428       0             -30.003114     -437730.44    
       340   130.04999     -30.153209      0             -30.069158     -557410.97    
       350   1585.3447     -31.934251      0             -30.909642     -921584.02    
       360   3189.2314     -34.268376      0             -32.207173     -768954.27    
       370   1187.7834     -35.488195      0             -34.72053      -1023627.7    
       380   6463.9128     -37.46912       0             -33.291489     -1292629.6    
       390   128.05791     -39.154646      0             -39.071882     -1631547.3    
       400   1198.7489     -39.898196      0             -39.123444     -1212584.2    
       410   1266.5995     -40.683477      0             -39.864873     -1612039.4    
       420   564.00091     -41.509177      0             -41.144663     -1669527      
       430   1933.0356     -40.699921      0             -39.450598     -1582049.7    
       440   13465.4       -49.743557      0             -41.040859     -1739681.2    
       450   159.76186     -51.007706      0             -50.904451     -2014155.6    
       460   2777.6953     -51.227937      0             -49.432711     -1840883      
       470   673.94513     -57.245638      0             -56.810067     -1455415.3    
       480   5482.2923     -55.180329      0             -51.637119     -1322141.9    
       490   29.097944     -68.121946      0             -68.10314      -2056221.5    
       500   2067.8136     -69.375823      0             -68.039393     -1977411.5    
       510   13704.195     -75.83964       0             -66.982609     -1803895.6    
       520   2970.9606     -77.296498      0             -75.376364     -2467368.7    
       530   1064.701      -78.27726       0             -77.589143     -2265510.4    
       540   4856.1188     -80.815526      0             -77.677013     -2340205.7    
       550   7.1923019     -83.711936      0             -83.707288     -2402160.2    
       560   373.5652      -83.948917      0             -83.707482     -2436846.1    
       570   1850.4001     -84.776774      0             -83.580859     -2618606.1    
       580   157.39644     -85.154999      0             -85.053274     -2669576.8    
       590   600.82186     -85.441716      0             -85.053405     -2701978.9    
       600   281.24407     -81.828138      0             -81.64637      -2562672.3    
       610   152.35626     -78.1847        0             -78.086232     -2350504.1    
       620   826.96811     -74.661007      0             -74.126537     -2515028.5    
       630   20.775144     -74.928584      0             -74.915157     -2623611.4    
       640   207.97849     -70.265084      0             -70.130668     -2301605.3    
       650   1948.4901     -70.934786      0             -69.675475     -2358001.5    
       660   881.32097     -71.380845      0             -70.811246     -2443521.7    
       670   58.698974     -71.43371       0             -71.395773     -2420490.2    
       680   413.17201     -72.071301      0             -71.804268     -2357068.4    
       690   7290.4156     -73.400428      0             -68.688627     -1705463.6    
       700   433.91821     -74.186498      0             -73.906057     -1884056      
       710   109.49722     -74.783123      0             -74.712354     -1577379.7    
       720   231.99125     -75.318649      0             -75.168713     -1769160.4    
       730   25.241655     -75.357467      0             -75.341153     -1773571.6    
       740   170.22114     -75.450812      0             -75.340798     -1768782.6    
       750   339.82359     -111.1893       0             -110.96967     -3126020.6    
       760   72.933693     -111.6644       0             -111.61726     -3620577.4    
       770   5.8819667     -111.69467      0             -111.69087     -3514214.5    
       780   28.493752     -111.71069      0             -111.69228     -3553912.3    
       790   2.627064      -111.71664      0             -111.71494     -3533069.7    
       800   0.042725239   -111.7195       0             -111.71948     -3529423.5    
       810   1.1712278     -111.72019      0             -111.71943     -3543386.3    
       820   0.0039550584  -111.72053      0             -111.72052     -3536752.2    
       830   0.10855768    -111.72059      0             -111.72052     -3536625.8    
       840   0.499188      -111.72085      0             -111.72052     -3535945.3    
       850   0.020373796   -111.72087      0             -111.72085     -3535405.7    
       860   0.00052016877 -111.72091      0             -111.72091     -3535444.1    
       870   0.0027947447  -111.7209       0             -111.7209      -3535483.5    
       880   0.00069554614 -111.72091      0             -111.72091     -3535559.6    
       890   0.00017225059 -111.72091      0             -111.72091     -3535556.1    
       900   0.00093776769 -111.72091      0             -111.72091     -3535562.8    
       910   0.00062023108 -111.72091      0             -111.72091     -3535600.2    
       920   1.7316146e-06 -111.72091      0             -111.72091     -3535596.1    
       930   4.9677204e-08 -111.72091      0             -111.72091     -3535598.2    
       940   1.6707192e-06 -111.7209       0             -111.7209      -3535598.2    
       950   5.2098586e-06 -111.72091      0             -111.72091     -3535601.6    
       960   5.6009452e-09 -111.72091      0             -111.72091     -3535603.2    
       970   3.471956e-07  -111.72091      0             -111.72091     -3535602.9    
       980   1.2431575e-06 -111.72091      0             -111.72091     -3535602.5    
       990   1.3007276e-08 -111.72091      0             -111.72091     -3535602.8    
      1000   8.9380731e-08 -111.72092      0             -111.72092     -3535602.9    
      1010   3.1035551e-08 -111.72091      0             -111.72091     -3535603.5    
      1020   8.1118785e-09 -111.72091      0             -111.72091     -3535603.5    
      1030   2.6059648e-08 -111.72091      0             -111.72091     -3535603.6    
      1040   3.5365758e-10 -111.72091      0             -111.72091     -3535603.6    
      1050   7.082251e-11  -111.72091      0             -111.72091     -3535603.6    
      1060   1.0792848e-09 -111.72091      0             -111.72091     -3535603.6    
      1070   4.8089206e-09 -111.72091      0             -111.72091     -3535603.7    
      1080   3.6796535e-11 -111.72091      0             -111.72091     -3535603.7    
      1090   6.4621644e-12 -111.72091      0             -111.72091     -3535603.7    
      1100   6.0712353e-11 -111.72091      0             -111.72091     -3535603.7    
      1110   7.6276527e-13 -111.72091      0             -111.72091     -3535603.7    
      1120   1.4617147e-11 -111.72091      0             -111.72091     -3535603.7    
      1130   2.3322035e-12 -111.72091      0             -111.72091     -3535603.7    
      1139   3.572269e-13  -111.72091      0             -111.72091     -3535603.7    
Loop time of 8.83353 on 1 procs for 1139 steps with 6 atoms

99.8% CPU use with 1 MPI tasks x 1 OpenMP threads

Minimization stats:
  Stopping criterion = energy tolerance
  Energy initial, next-to-last, final = 
      6.00387161310136  -111.720907855745  -111.720907855781
  Force two-norm initial, final = 114.1571 5.5679818e-07
  Force max component initial, final = 77.733619 2.7457034e-07
  Final line search alpha, max atom move = 0 0
  Iterations, force evaluations = 1139 1229

MPI task timing breakdown:
Section |  min time  |  avg time  |  max time  |%varavg| %total
---------------------------------------------------------------
Pair    | 8.7876     | 8.7876     | 8.7876     |   0.0 | 99.48
Neigh   | 0.00031613 | 0.00031613 | 0.00031613 |   0.0 |  0.00
Comm    | 0.027723   | 0.027723   | 0.027723   |   0.0 |  0.31
Output  | 0.0033107  | 0.0033107  | 0.0033107  |   0.0 |  0.04
Modify  | 0          | 0          | 0          |   0.0 |  0.00
Other   |            | 0.01461    |            |       |  0.17

Nlocal:              6 ave           6 max           6 min
Histogram: 1 0 0 0 0 0 0 0 0 0
Nghost:           2524 ave        2524 max        2524 min
Histogram: 1 0 0 0 0 0 0 0 0 0
Neighs:             78 ave          78 max          78 min
Histogram: 1 0 0 0 0 0 0 0 0 0
FullNghs:         4596 ave        4596 max        4596 min
Histogram: 1 0 0 0 0 0 0 0 0 0

Total # of neighbors = 4596
Ave neighs/atom = 766
Neighbor list builds = 3
Dangerous builds = 0
write_data ./StructureDump/sample.10.dat 
System init for write_data ...
variable etot equal etotal
variable ptot equal press
variable pairp equal epair
variable numat equal atoms
run 0
WARNING: No fixes with time integration, atoms won't move (src/verlet.cpp:60)
Per MPI rank memory allocation (min/avg/max) = 3.903 | 3.903 | 3.903 Mbytes
   Step          Temp          E_pair         E_mol          TotEng         Press     
      1139   3.572269e-13  -111.72091      0             -111.72091     -4019685.1    
Loop time of 4.2286e-05 on 1 procs for 0 steps with 6 atoms

0.0% CPU use with 1 MPI tasks x 1 OpenMP threads

MPI task timing breakdown:
Section |  min time  |  avg time  |  max time  |%varavg| %total
---------------------------------------------------------------
Pair    | 0          | 0          | 0          |   0.0 |  0.00
Neigh   | 0          | 0          | 0          |   0.0 |  0.00
Comm    | 0          | 0          | 0          |   0.0 |  0.00
Output  | 0          | 0          | 0          |   0.0 |  0.00
Modify  | 0          | 0          | 0          |   0.0 |  0.00
Other   |            | 4.229e-05  |            |       |100.00

Nlocal:              6 ave           6 max           6 min
Histogram: 1 0 0 0 0 0 0 0 0 0
Nghost:           2524 ave        2524 max        2524 min
Histogram: 1 0 0 0 0 0 0 0 0 0
Neighs:             79 ave          79 max          79 min
Histogram: 1 0 0 0 0 0 0 0 0 0
FullNghs:         4586 ave        4586 max        4586 min
Histogram: 1 0 0 0 0 0 0 0 0 0

Total # of neighbors = 4586
Ave neighs/atom = 764.33333
Neighbor list builds = 0
Dangerous builds = 0
print "${etot} ${pairp} ${ptot} ${numat} " append Summary.dat screen no
