mass 1 51.996100
pair_style hybrid/overlay soft 1.650 mliap model mliappy LATER descriptor ace coupling_coefficients.yace
Loading python model deferred.
pair_coeff * * soft 100.0
pair_coeff * * mliap   Cr

thermo 10
velocity all create 0.0001 4928459 dist gaussian
Loading python model complete.
min_style  fire
min_modify integrator eulerexplicit tmax 10.0 tmin 0.0 delaystep 5 dtgrow 1.1 dtshrink 0.5 alpha0 0.1 alphashrink 0.99 vdfmax 100000 halfstepback no initialdelay no
minimize 1e-12 1e-12 10000 100000
Neighbor list info ...
  update: every = 1 steps, delay = 0 steps, check = yes
  max neighbors/atom: 2000, page size: 100000
  master list distance cutoff = 13.209389
  ghost atom cutoff = 13.209389
  binsize = 6.6046944, bins = 2 2 1
  2 neighbor lists, perpetual/occasional/extra = 2 0 0
  (1) pair soft, perpetual, half/full trim from (2)
      attributes: half, newton on, cut 3.65
      pair build: halffull/trim/newton/tri
      stencil: none
      bin: none
  (2) pair mliap, perpetual
      attributes: full, newton on
      pair build: full/bin/atomonly
      stencil: full/bin/3d
      bin: standard
  Parameters for fire:
    dmax  delaystep dtgrow dtshrink alpha0 alphashrink tmax tmin   integrator   halfstepback   abcfire  
     0.1      5      1.1     0.5     0.1      0.99      10   0   eulerexplicit       no          no     
Per MPI rank memory allocation (min/avg/max) = 4.037 | 4.037 | 4.037 Mbytes
   Step          Temp          E_pair         E_mol          TotEng         Press     
         0   0              14.834488      0              14.834488      1484409.9    
        10   21494.028     -4.4138579      0              17.812712      374141.05    
        20   9140.7374     -4.8127749      0              4.6394894      362973.34    
        30   318.51191     -5.059135       0             -4.7297678      151131.31    
        40   421.94473     -5.390409       0             -4.9540839      138678.41    
        50   181.9995      -5.7929416      0             -5.6047393      114027.65    
        60   4784.6259     -8.9425555      0             -3.9948641     -17562.188    
        70   2317.6449     -10.737905      0             -8.3412721     -134787.68    
        80   278.44841     -12.823528      0             -12.53559      -265496.76    
        90   2746.1804     -14.93602       0             -12.096247     -312953.43    
       100   11632.148     -13.562479      0             -1.533894       471287.37    
       110   3453.9959     -23.109597      0             -19.537885     -504395.47    
       120   2909.5853     -30.459819      0             -27.451071     -484742.37    
       130   1427.1329     -32.175391      0             -30.69962      -591090.15    
       140   5627.8638     -36.888682      0             -31.069014     -518685.12    
       150   8306.0778     -44.591423      0             -36.002264     -722297.07    
       160   35.631971     -51.021871      0             -50.985025     -958161.62    
       170   1517.0646     -53.844675      0             -52.275907     -698321.57    
       180   494.70961     -54.11299       0             -53.60142      -347627.87    
       190   1030.899      -52.719271      0             -51.653237     -584335.57    
       200   13.854723     -53.609389      0             -53.595062     -519643.97    
       210   243.24833     -54.134457      0             -53.882919     -581448.97    
       220   1483.1998     -54.873591      0             -53.339842     -607090.22    
       230   522.02339     -56.052269      0             -55.512455     -447217.6     
       240   18.835918     -56.275495      0             -56.256017     -555048.66    
       250   211.66188     -56.348996      0             -56.130121     -591740.39    
       260   1959.7747     -59.945767      0             -57.919201     -613179.72    
       270   814.95621     -63.168819      0             -62.326088     -672190.09    
       280   263.56734     -61.670345      0             -61.397795     -648029.02    
       290   716.12171     -61.779929      0             -61.039401     -650701.86    
       300   233.97096     -63.376585      0             -63.13464      -663540.31    
       310   110.95098     -63.60558       0             -63.490847     -644911.68    
       320   85.459941     -63.779986      0             -63.691613     -680494.69    
       330   5.9308159     -65.452473      0             -65.44634      -776497.27    
       340   10.832443     -63.963522      0             -63.95232      -681629.84    
       350   63.532979     -64.026198      0             -63.9605       -705125       
       360   458.26613     -64.69622       0             -64.222335     -769826.47    
       370   121.71172     -65.334067      0             -65.208207     -786924.66    
       380   21.688483     -65.391376      0             -65.368948     -777651.44    
       390   110.52882     -65.099297      0             -64.985001     -741409.87    
       400   10.517225     -68.590155      0             -68.579279     -729608.19    
       410   341.74286     -68.818245      0             -68.464855     -870055.64    
       420   19.321979     -65.799252      0             -65.779272     -784786.3     
       430   119.57958     -65.903252      0             -65.779597     -850466.3     
       440   769.75579     -72.903075      0             -72.107085     -710128.9     
       450   0.30454922    -73.009432      0             -73.009117     -831933.76    
       460   36.672893     -73.0435        0             -73.005577     -857906.18    
       470   19.589341     -73.128623      0             -73.108366     -912848.87    
       480   190.42742     -71.35475       0             -71.157833     -859928.58    
       490   144.96253     -77.375427      0             -77.225524     -754025.73    
       500   191.50593     -78.186827      0             -77.988795     -925375.87    
       510   43.253486     -78.221329      0             -78.176602     -928374.35    
       520   123.13496     -78.319632      0             -78.192301     -972607.95    
       530   17.905335     -78.476737      0             -78.458221     -954533.33    
       540   51.392484     -75.135201      0             -75.082057     -835986.9     
       550   286.49782     -78.738389      0             -78.442127     -1058136.1    
       560   62.120905     -72.517132      0             -72.452894     -798391.85    
       570   2.6434093     -71.528134      0             -71.525401     -1022810.3    
       580   5.3741899     -71.567541      0             -71.561984     -960042.97    
       590   30.390615     -71.597175      0             -71.565749     -951570.39    
       600   241.65482     -71.705728      0             -71.455838     -1002872.3    
       610   24.02773      -71.807937      0             -71.783091     -980633.53    
       620   0.11546349    -71.620152      0             -71.620033     -949074.87    
       630   0.83917299    -71.08105       0             -71.080182     -981968.35    
       640   0.0038420563  -71.081985      0             -71.081981     -982060.02    
       650   0.0024432037  -71.621864      0             -71.621862     -949475.38    
       660   0.00015264406 -71.082232      0             -71.082232     -982078.39    
       670   2.6500807e-05 -71.621866      0             -71.621866     -949476.6     
       680   5.9626773e-07 -71.621866      0             -71.621866     -949476.6     
       690   3.7187246e-06 -71.082231      0             -71.082231     -982078.43    
       700   3.7809611e-08 -71.082231      0             -71.082231     -982078.43    
       710   5.9077518e-10 -71.082231      0             -71.082231     -982078.43    
       720   7.1636598e-10 -71.082231      0             -71.082231     -982078.43    
       730   2.2949718e-11 -71.621866      0             -71.621866     -949476.6     
       733   9.6111069e-11 -71.082231      0             -71.082231     -982078.43    
Loop time of 7.11652 on 1 procs for 733 steps with 9 atoms

100.0% CPU use with 1 MPI tasks x 1 OpenMP threads

Minimization stats:
  Stopping criterion = energy tolerance
  Energy initial, next-to-last, final = 
       14.834487840265  -71.0822314090641  -71.0822314090641
  Force two-norm initial, final = 160.06707 9.0919404
  Force max component initial, final = 112.64289 4.179629
  Final line search alpha, max atom move = 0 0
  Iterations, force evaluations = 733 802

MPI task timing breakdown:
Section |  min time  |  avg time  |  max time  |%varavg| %total
---------------------------------------------------------------
Pair    | 7.0846     | 7.0846     | 7.0846     |   0.0 | 99.55
Neigh   | 0.00050736 | 0.00050736 | 0.00050736 |   0.0 |  0.01
Comm    | 0.019847   | 0.019847   | 0.019847   |   0.0 |  0.28
Output  | 0.0021523  | 0.0021523  | 0.0021523  |   0.0 |  0.03
Modify  | 0          | 0          | 0          |   0.0 |  0.00
Other   |            | 0.009444   |            |       |  0.13

Nlocal:              9 ave           9 max           9 min
Histogram: 1 0 0 0 0 0 0 0 0 0
Nghost:           2946 ave        2946 max        2946 min
Histogram: 1 0 0 0 0 0 0 0 0 0
Neighs:            105 ave         105 max         105 min
Histogram: 1 0 0 0 0 0 0 0 0 0
FullNghs:         7094 ave        7094 max        7094 min
Histogram: 1 0 0 0 0 0 0 0 0 0

Total # of neighbors = 7094
Ave neighs/atom = 788.22222
Neighbor list builds = 3
Dangerous builds = 0
write_data ./StructureDump/sample.3.dat 
System init for write_data ...
variable etot equal etotal
variable ptot equal press
variable pairp equal epair
variable numat equal atoms
run 0
WARNING: No fixes with time integration, atoms won't move (src/verlet.cpp:60)
Per MPI rank memory allocation (min/avg/max) = 4.041 | 4.041 | 4.041 Mbytes
   Step          Temp          E_pair         E_mol          TotEng         Press     
       733   9.6111069e-11 -71.082231      0             -71.082231     -911901.71    
Loop time of 3.2766e-05 on 1 procs for 0 steps with 9 atoms

109.9% CPU use with 1 MPI tasks x 1 OpenMP threads

MPI task timing breakdown:
Section |  min time  |  avg time  |  max time  |%varavg| %total
---------------------------------------------------------------
Pair    | 0          | 0          | 0          |   0.0 |  0.00
Neigh   | 0          | 0          | 0          |   0.0 |  0.00
Comm    | 0          | 0          | 0          |   0.0 |  0.00
Output  | 0          | 0          | 0          |   0.0 |  0.00
Modify  | 0          | 0          | 0          |   0.0 |  0.00
Other   |            | 3.277e-05  |            |       |100.00

Nlocal:              9 ave           9 max           9 min
Histogram: 1 0 0 0 0 0 0 0 0 0
Nghost:           2921 ave        2921 max        2921 min
Histogram: 1 0 0 0 0 0 0 0 0 0
Neighs:            106 ave         106 max         106 min
Histogram: 1 0 0 0 0 0 0 0 0 0
FullNghs:         7090 ave        7090 max        7090 min
Histogram: 1 0 0 0 0 0 0 0 0 0

Total # of neighbors = 7090
Ave neighs/atom = 787.77778
Neighbor list builds = 0
Dangerous builds = 0
print "${etot} ${pairp} ${ptot} ${numat} " append Summary.dat screen no
Total wall time: 0:00:07
