LAMMPS (2 Aug 2023 - Development - aff10deeb7-modified)
Total wall time: 0:00:00
LAMMPS (2 Aug 2023 - Development - aff10deeb7-modified)
Total wall time: 0:00:00
LAMMPS (2 Aug 2023 - Development - aff10deeb7-modified)
Total wall time: 0:00:00
LAMMPS (2 Aug 2023 - Development - aff10deeb7-modified)
Total wall time: 0:00:00
LAMMPS (2 Aug 2023 - Development - aff10deeb7-modified)
Total wall time: 0:00:00
LAMMPS (2 Aug 2023 - Development - aff10deeb7-modified)
Total wall time: 0:00:00
LAMMPS (2 Aug 2023 - Development - aff10deeb7-modified)
Total wall time: 0:00:00
LAMMPS (2 Aug 2023 - Development - aff10deeb7-modified)
Total wall time: 0:00:00
LAMMPS (2 Aug 2023 - Development - aff10deeb7-modified)
Total wall time: 0:00:00
LAMMPS (2 Aug 2023 - Development - aff10deeb7-modified)
Total wall time: 0:00:00
LAMMPS (2 Aug 2023 - Development - aff10deeb7-modified)
Total wall time: 0:00:00
LAMMPS (2 Aug 2023 - Development - aff10deeb7-modified)
Total wall time: 0:00:00
LAMMPS (2 Aug 2023 - Development - aff10deeb7-modified)
Total wall time: 0:00:00
LAMMPS (2 Aug 2023 - Development - aff10deeb7-modified)
Total wall time: 0:00:00
LAMMPS (2 Aug 2023 - Development - aff10deeb7-modified)
Total wall time: 0:00:00
LAMMPS (2 Aug 2023 - Development - aff10deeb7-modified)
Total wall time: 0:00:00
LAMMPS (2 Aug 2023 - Development - aff10deeb7-modified)
Total wall time: 0:00:00
LAMMPS (2 Aug 2023 - Development - aff10deeb7-modified)
Total wall time: 0:00:00
LAMMPS (2 Aug 2023 - Development - aff10deeb7-modified)
Total wall time: 0:00:00
LAMMPS (2 Aug 2023 - Development - aff10deeb7-modified)
Total wall time: 0:00:00
LAMMPS (2 Aug 2023 - Development - aff10deeb7-modified)
Total wall time: 0:00:00
LAMMPS (2 Aug 2023 - Development - aff10deeb7-modified)
Total wall time: 0:00:00
LAMMPS (2 Aug 2023 - Development - aff10deeb7-modified)
Total wall time: 0:00:00
LAMMPS (2 Aug 2023 - Development - aff10deeb7-modified)
Total wall time: 0:00:00
LAMMPS (2 Aug 2023 - Development - aff10deeb7-modified)
Total wall time: 0:00:00
LAMMPS (2 Aug 2023 - Development - aff10deeb7-modified)
Total wall time: 0:00:00
LAMMPS (2 Aug 2023 - Development - aff10deeb7-modified)
Total wall time: 0:00:00
LAMMPS (2 Aug 2023 - Development - aff10deeb7-modified)
Total wall time: 0:00:00
LAMMPS (2 Aug 2023 - Development - aff10deeb7-modified)
Total wall time: 0:00:00
LAMMPS (2 Aug 2023 - Development - aff10deeb7-modified)
Total wall time: 0:00:00
LAMMPS (2 Aug 2023 - Development - aff10deeb7-modified)
Total wall time: 0:00:00
LAMMPS (2 Aug 2023 - Development - aff10deeb7-modified)
Total wall time: 0:00:00
LAMMPS (2 Aug 2023 - Development - aff10deeb7-modified)
Total wall time: 0:00:00
LAMMPS (2 Aug 2023 - Development - aff10deeb7-modified)
Total wall time: 0:00:00
LAMMPS (2 Aug 2023 - Development - aff10deeb7-modified)
Total wall time: 0:00:00
LAMMPS (2 Aug 2023 - Development - aff10deeb7-modified)
Total wall time: 0:00:00
LAMMPS (2 Aug 2023 - Development - aff10deeb7-modified)
Total wall time: 0:00:00
LAMMPS (2 Aug 2023 - Development - aff10deeb7-modified)
Total wall time: 0:00:00
LAMMPS (2 Aug 2023 - Development - aff10deeb7-modified)
Total wall time: 0:00:00
LAMMPS (2 Aug 2023 - Development - aff10deeb7-modified)
Total wall time: 0:00:00
LAMMPS (2 Aug 2023 - Development - aff10deeb7-modified)
Total wall time: 0:00:00
LAMMPS (2 Aug 2023 - Development - aff10deeb7-modified)
Total wall time: 0:00:00
LAMMPS (2 Aug 2023 - Development - aff10deeb7-modified)
Total wall time: 0:00:00
LAMMPS (2 Aug 2023 - Development - aff10deeb7-modified)
Total wall time: 0:00:00
LAMMPS (2 Aug 2023 - Development - aff10deeb7-modified)
Total wall time: 0:00:00
LAMMPS (2 Aug 2023 - Development - aff10deeb7-modified)
Total wall time: 0:00:00
LAMMPS (2 Aug 2023 - Development - aff10deeb7-modified)
Total wall time: 0:00:00
LAMMPS (2 Aug 2023 - Development - aff10deeb7-modified)
Total wall time: 0:00:00
LAMMPS (2 Aug 2023 - Development - aff10deeb7-modified)
Total wall time: 0:00:00
LAMMPS (2 Aug 2023 - Development - aff10deeb7-modified)
Total wall time: 0:00:00
LAMMPS (2 Aug 2023 - Development - aff10deeb7-modified)
Total wall time: 0:00:00
LAMMPS (2 Aug 2023 - Development - aff10deeb7-modified)
Total wall time: 0:00:00
LAMMPS (2 Aug 2023 - Development - aff10deeb7-modified)
Total wall time: 0:00:00
LAMMPS (2 Aug 2023 - Development - aff10deeb7-modified)
Total wall time: 0:00:00
LAMMPS (2 Aug 2023 - Development - aff10deeb7-modified)
Total wall time: 0:00:00
LAMMPS (2 Aug 2023 - Development - aff10deeb7-modified)
Total wall time: 0:00:00
LAMMPS (2 Aug 2023 - Development - aff10deeb7-modified)
Total wall time: 0:00:00
LAMMPS (2 Aug 2023 - Development - aff10deeb7-modified)
Total wall time: 0:00:00
LAMMPS (2 Aug 2023 - Development - aff10deeb7-modified)
Total wall time: 0:00:00
LAMMPS (2 Aug 2023 - Development - aff10deeb7-modified)
Total wall time: 0:00:00
LAMMPS (2 Aug 2023 - Development - aff10deeb7-modified)
Total wall time: 0:00:00
LAMMPS (2 Aug 2023 - Development - aff10deeb7-modified)
Total wall time: 0:00:00
LAMMPS (2 Aug 2023 - Development - aff10deeb7-modified)
Total wall time: 0:00:00
LAMMPS (2 Aug 2023 - Development - aff10deeb7-modified)
Total wall time: 0:00:00
LAMMPS (2 Aug 2023 - Development - aff10deeb7-modified)
Total wall time: 0:00:00
LAMMPS (2 Aug 2023 - Development - aff10deeb7-modified)
Total wall time: 0:00:00
LAMMPS (2 Aug 2023 - Development - aff10deeb7-modified)
Total wall time: 0:00:00
LAMMPS (2 Aug 2023 - Development - aff10deeb7-modified)
Total wall time: 0:00:00
LAMMPS (2 Aug 2023 - Development - aff10deeb7-modified)
Total wall time: 0:00:00
LAMMPS (2 Aug 2023 - Development - aff10deeb7-modified)
Total wall time: 0:00:00
LAMMPS (2 Aug 2023 - Development - aff10deeb7-modified)
Total wall time: 0:00:00
LAMMPS (2 Aug 2023 - Development - aff10deeb7-modified)
Total wall time: 0:00:00
LAMMPS (2 Aug 2023 - Development - aff10deeb7-modified)
Total wall time: 0:00:00
LAMMPS (2 Aug 2023 - Development - aff10deeb7-modified)
Total wall time: 0:00:00
LAMMPS (2 Aug 2023 - Development - aff10deeb7-modified)
Total wall time: 0:00:00
LAMMPS (2 Aug 2023 - Development - aff10deeb7-modified)
Total wall time: 0:00:00
LAMMPS (2 Aug 2023 - Development - aff10deeb7-modified)
Total wall time: 0:00:00
LAMMPS (2 Aug 2023 - Development - aff10deeb7-modified)
Total wall time: 0:00:00
LAMMPS (2 Aug 2023 - Development - aff10deeb7-modified)
Total wall time: 0:00:00
LAMMPS (2 Aug 2023 - Development - aff10deeb7-modified)
Total wall time: 0:00:00
LAMMPS (2 Aug 2023 - Development - aff10deeb7-modified)
Total wall time: 0:00:00
LAMMPS (2 Aug 2023 - Development - aff10deeb7-modified)
Total wall time: 0:00:00
LAMMPS (2 Aug 2023 - Development - aff10deeb7-modified)
Total wall time: 0:00:00
LAMMPS (2 Aug 2023 - Development - aff10deeb7-modified)
Total wall time: 0:00:00
LAMMPS (2 Aug 2023 - Development - aff10deeb7-modified)
Total wall time: 0:00:00
LAMMPS (2 Aug 2023 - Development - aff10deeb7-modified)
Total wall time: 0:00:00
LAMMPS (2 Aug 2023 - Development - aff10deeb7-modified)
Total wall time: 0:00:00
LAMMPS (2 Aug 2023 - Development - aff10deeb7-modified)
Total wall time: 0:00:00
LAMMPS (2 Aug 2023 - Development - aff10deeb7-modified)
Total wall time: 0:00:00
LAMMPS (2 Aug 2023 - Development - aff10deeb7-modified)
Total wall time: 0:00:00
LAMMPS (2 Aug 2023 - Development - aff10deeb7-modified)
Total wall time: 0:00:00
LAMMPS (2 Aug 2023 - Development - aff10deeb7-modified)
Total wall time: 0:00:00
LAMMPS (2 Aug 2023 - Development - aff10deeb7-modified)
Total wall time: 0:00:00
LAMMPS (2 Aug 2023 - Development - aff10deeb7-modified)
Total wall time: 0:00:00
LAMMPS (2 Aug 2023 - Development - aff10deeb7-modified)
Total wall time: 0:00:00
LAMMPS (2 Aug 2023 - Development - aff10deeb7-modified)
Total wall time: 0:00:00
LAMMPS (2 Aug 2023 - Development - aff10deeb7-modified)
Total wall time: 0:00:00
LAMMPS (2 Aug 2023 - Development - aff10deeb7-modified)
Total wall time: 0:00:00
LAMMPS (2 Aug 2023 - Development - aff10deeb7-modified)
Total wall time: 0:00:00
LAMMPS (2 Aug 2023 - Development - aff10deeb7-modified)
Total wall time: 0:00:00
LAMMPS (2 Aug 2023 - Development - aff10deeb7-modified)
Total wall time: 0:00:00
LAMMPS (2 Aug 2023 - Development - aff10deeb7-modified)
Total wall time: 0:00:00
LAMMPS (2 Aug 2023 - Development - aff10deeb7-modified)
Total wall time: 0:00:00
LAMMPS (2 Aug 2023 - Development - aff10deeb7-modified)
Total wall time: 0:00:00
LAMMPS (2 Aug 2023 - Development - aff10deeb7-modified)
Total wall time: 0:00:00
LAMMPS (2 Aug 2023 - Development - aff10deeb7-modified)
Total wall time: 0:00:00
LAMMPS (2 Aug 2023 - Development - aff10deeb7-modified)
Total wall time: 0:00:00
LAMMPS (2 Aug 2023 - Development - aff10deeb7-modified)
Total wall time: 0:00:00
LAMMPS (2 Aug 2023 - Development - aff10deeb7-modified)
Total wall time: 0:00:00
LAMMPS (2 Aug 2023 - Development - aff10deeb7-modified)
Total wall time: 0:00:00
LAMMPS (2 Aug 2023 - Development - aff10deeb7-modified)
Total wall time: 0:00:00
LAMMPS (2 Aug 2023 - Development - aff10deeb7-modified)
Total wall time: 0:00:00
LAMMPS (2 Aug 2023 - Development - aff10deeb7-modified)
Total wall time: 0:00:00
LAMMPS (2 Aug 2023 - Development - aff10deeb7-modified)
Total wall time: 0:00:00
LAMMPS (2 Aug 2023 - Development - aff10deeb7-modified)
Total wall time: 0:00:00
LAMMPS (2 Aug 2023 - Development - aff10deeb7-modified)
Total wall time: 0:00:00
LAMMPS (2 Aug 2023 - Development - aff10deeb7-modified)
Total wall time: 0:00:00
LAMMPS (2 Aug 2023 - Development - aff10deeb7-modified)
Total wall time: 0:00:00
LAMMPS (2 Aug 2023 - Development - aff10deeb7-modified)
Total wall time: 0:00:00
LAMMPS (2 Aug 2023 - Development - aff10deeb7-modified)
Total wall time: 0:00:00
LAMMPS (2 Aug 2023 - Development - aff10deeb7-modified)
Total wall time: 0:00:00
LAMMPS (2 Aug 2023 - Development - aff10deeb7-modified)
Total wall time: 0:00:00
LAMMPS (2 Aug 2023 - Development - aff10deeb7-modified)
Total wall time: 0:00:00
LAMMPS (2 Aug 2023 - Development - aff10deeb7-modified)
Total wall time: 0:00:00
LAMMPS (2 Aug 2023 - Development - aff10deeb7-modified)
Total wall time: 0:00:00
LAMMPS (2 Aug 2023 - Development - aff10deeb7-modified)
Total wall time: 0:00:00
LAMMPS (2 Aug 2023 - Development - aff10deeb7-modified)
Total wall time: 0:00:00
LAMMPS (2 Aug 2023 - Development - aff10deeb7-modified)
Total wall time: 0:00:00
LAMMPS (2 Aug 2023 - Development - aff10deeb7-modified)
Total wall time: 0:00:00
LAMMPS (2 Aug 2023 - Development - aff10deeb7-modified)
Total wall time: 0:00:00
LAMMPS (2 Aug 2023 - Development - aff10deeb7-modified)
Total wall time: 0:00:00
LAMMPS (2 Aug 2023 - Development - aff10deeb7-modified)
Total wall time: 0:00:00
LAMMPS (2 Aug 2023 - Development - aff10deeb7-modified)
Total wall time: 0:00:00
LAMMPS (2 Aug 2023 - Development - aff10deeb7-modified)
Total wall time: 0:00:00
LAMMPS (2 Aug 2023 - Development - aff10deeb7-modified)
Total wall time: 0:00:00
LAMMPS (2 Aug 2023 - Development - aff10deeb7-modified)
Total wall time: 0:00:00
LAMMPS (2 Aug 2023 - Development - aff10deeb7-modified)
Total wall time: 0:00:00
LAMMPS (2 Aug 2023 - Development - aff10deeb7-modified)
Total wall time: 0:00:00
LAMMPS (2 Aug 2023 - Development - aff10deeb7-modified)
Total wall time: 0:00:00
LAMMPS (2 Aug 2023 - Development - aff10deeb7-modified)
Total wall time: 0:00:00
LAMMPS (2 Aug 2023 - Development - aff10deeb7-modified)
Total wall time: 0:00:00
LAMMPS (2 Aug 2023 - Development - aff10deeb7-modified)
Total wall time: 0:00:00
LAMMPS (2 Aug 2023 - Development - aff10deeb7-modified)
Total wall time: 0:00:00
LAMMPS (2 Aug 2023 - Development - aff10deeb7-modified)
Total wall time: 0:00:00
LAMMPS (2 Aug 2023 - Development - aff10deeb7-modified)
Total wall time: 0:00:00
LAMMPS (2 Aug 2023 - Development - aff10deeb7-modified)
Total wall time: 0:00:00
LAMMPS (2 Aug 2023 - Development - aff10deeb7-modified)
Total wall time: 0:00:00
LAMMPS (2 Aug 2023 - Development - aff10deeb7-modified)
Total wall time: 0:00:00
LAMMPS (2 Aug 2023 - Development - aff10deeb7-modified)
Total wall time: 0:00:00
LAMMPS (2 Aug 2023 - Development - aff10deeb7-modified)
Total wall time: 0:00:00
LAMMPS (2 Aug 2023 - Development - aff10deeb7-modified)
Total wall time: 0:00:00
LAMMPS (2 Aug 2023 - Development - aff10deeb7-modified)
Total wall time: 0:00:00
LAMMPS (2 Aug 2023 - Development - aff10deeb7-modified)
Total wall time: 0:00:00
LAMMPS (2 Aug 2023 - Development - aff10deeb7-modified)
Total wall time: 0:00:00
LAMMPS (2 Aug 2023 - Development - aff10deeb7-modified)
Total wall time: 0:00:00
LAMMPS (2 Aug 2023 - Development - aff10deeb7-modified)
Total wall time: 0:00:00
LAMMPS (2 Aug 2023 - Development - aff10deeb7-modified)
Total wall time: 0:00:00
LAMMPS (2 Aug 2023 - Development - aff10deeb7-modified)
Total wall time: 0:00:00
LAMMPS (2 Aug 2023 - Development - aff10deeb7-modified)
Total wall time: 0:00:00
LAMMPS (2 Aug 2023 - Development - aff10deeb7-modified)
Total wall time: 0:00:00
LAMMPS (2 Aug 2023 - Development - aff10deeb7-modified)
Total wall time: 0:00:00
LAMMPS (2 Aug 2023 - Development - aff10deeb7-modified)
Total wall time: 0:00:00
LAMMPS (2 Aug 2023 - Development - aff10deeb7-modified)
Total wall time: 0:00:00
LAMMPS (2 Aug 2023 - Development - aff10deeb7-modified)
Total wall time: 0:00:00
LAMMPS (2 Aug 2023 - Development - aff10deeb7-modified)
Total wall time: 0:00:00
LAMMPS (2 Aug 2023 - Development - aff10deeb7-modified)
Total wall time: 0:00:00
LAMMPS (2 Aug 2023 - Development - aff10deeb7-modified)
Total wall time: 0:00:00
LAMMPS (2 Aug 2023 - Development - aff10deeb7-modified)
Total wall time: 0:00:00
LAMMPS (2 Aug 2023 - Development - aff10deeb7-modified)
Total wall time: 0:00:00
LAMMPS (2 Aug 2023 - Development - aff10deeb7-modified)
Total wall time: 0:00:00
LAMMPS (2 Aug 2023 - Development - aff10deeb7-modified)
Total wall time: 0:00:00
LAMMPS (2 Aug 2023 - Development - aff10deeb7-modified)
Total wall time: 0:00:00
LAMMPS (2 Aug 2023 - Development - aff10deeb7-modified)
Total wall time: 0:00:00
LAMMPS (2 Aug 2023 - Development - aff10deeb7-modified)
Total wall time: 0:00:00
LAMMPS (2 Aug 2023 - Development - aff10deeb7-modified)
Total wall time: 0:00:00
LAMMPS (2 Aug 2023 - Development - aff10deeb7-modified)
Total wall time: 0:00:00
LAMMPS (2 Aug 2023 - Development - aff10deeb7-modified)
Total wall time: 0:00:00
LAMMPS (2 Aug 2023 - Development - aff10deeb7-modified)
Total wall time: 0:00:00
LAMMPS (2 Aug 2023 - Development - aff10deeb7-modified)
Total wall time: 0:00:00
LAMMPS (2 Aug 2023 - Development - aff10deeb7-modified)
Total wall time: 0:00:00
LAMMPS (2 Aug 2023 - Development - aff10deeb7-modified)
Total wall time: 0:00:00
LAMMPS (2 Aug 2023 - Development - aff10deeb7-modified)
Total wall time: 0:00:00
LAMMPS (2 Aug 2023 - Development - aff10deeb7-modified)
Total wall time: 0:00:00
LAMMPS (2 Aug 2023 - Development - aff10deeb7-modified)
Total wall time: 0:00:00
LAMMPS (2 Aug 2023 - Development - aff10deeb7-modified)
Total wall time: 0:00:00
LAMMPS (2 Aug 2023 - Development - aff10deeb7-modified)
Total wall time: 0:00:00
LAMMPS (2 Aug 2023 - Development - aff10deeb7-modified)
Total wall time: 0:00:00
LAMMPS (2 Aug 2023 - Development - aff10deeb7-modified)
Total wall time: 0:00:00
LAMMPS (2 Aug 2023 - Development - aff10deeb7-modified)
Total wall time: 0:00:00
LAMMPS (2 Aug 2023 - Development - aff10deeb7-modified)
Total wall time: 0:00:00
LAMMPS (2 Aug 2023 - Development - aff10deeb7-modified)
Total wall time: 0:00:00
LAMMPS (2 Aug 2023 - Development - aff10deeb7-modified)
Total wall time: 0:00:00
LAMMPS (2 Aug 2023 - Development - aff10deeb7-modified)
Total wall time: 0:00:00
LAMMPS (2 Aug 2023 - Development - aff10deeb7-modified)
Total wall time: 0:00:00
LAMMPS (2 Aug 2023 - Development - aff10deeb7-modified)
Total wall time: 0:00:00
LAMMPS (2 Aug 2023 - Development - aff10deeb7-modified)
Total wall time: 0:00:00
LAMMPS (2 Aug 2023 - Development - aff10deeb7-modified)
Total wall time: 0:00:00
LAMMPS (2 Aug 2023 - Development - aff10deeb7-modified)
Total wall time: 0:00:00
LAMMPS (2 Aug 2023 - Development - aff10deeb7-modified)
Total wall time: 0:00:00
LAMMPS (2 Aug 2023 - Development - aff10deeb7-modified)
Total wall time: 0:00:00
LAMMPS (2 Aug 2023 - Development - aff10deeb7-modified)
Total wall time: 0:00:00
LAMMPS (2 Aug 2023 - Development - aff10deeb7-modified)
Total wall time: 0:00:00
LAMMPS (2 Aug 2023 - Development - aff10deeb7-modified)
Total wall time: 0:00:00
LAMMPS (2 Aug 2023 - Development - aff10deeb7-modified)
Total wall time: 0:00:00
LAMMPS (2 Aug 2023 - Development - aff10deeb7-modified)
Total wall time: 0:00:00
LAMMPS (2 Aug 2023 - Development - aff10deeb7-modified)
Total wall time: 0:00:00
LAMMPS (2 Aug 2023 - Development - aff10deeb7-modified)
Total wall time: 0:00:00
LAMMPS (2 Aug 2023 - Development - aff10deeb7-modified)
Total wall time: 0:00:00
LAMMPS (2 Aug 2023 - Development - aff10deeb7-modified)
Total wall time: 0:00:00
LAMMPS (2 Aug 2023 - Development - aff10deeb7-modified)
Total wall time: 0:00:00
LAMMPS (2 Aug 2023 - Development - aff10deeb7-modified)
Total wall time: 0:00:00
LAMMPS (2 Aug 2023 - Development - aff10deeb7-modified)
Total wall time: 0:00:00
LAMMPS (2 Aug 2023 - Development - aff10deeb7-modified)
Total wall time: 0:00:00
LAMMPS (2 Aug 2023 - Development - aff10deeb7-modified)
Total wall time: 0:00:00
LAMMPS (2 Aug 2023 - Development - aff10deeb7-modified)
Total wall time: 0:00:00
LAMMPS (2 Aug 2023 - Development - aff10deeb7-modified)
Total wall time: 0:00:00
LAMMPS (2 Aug 2023 - Development - aff10deeb7-modified)
Total wall time: 0:00:00
LAMMPS (2 Aug 2023 - Development - aff10deeb7-modified)
Total wall time: 0:00:00
LAMMPS (2 Aug 2023 - Development - aff10deeb7-modified)
Total wall time: 0:00:00
LAMMPS (2 Aug 2023 - Development - aff10deeb7-modified)
Total wall time: 0:00:00
LAMMPS (2 Aug 2023 - Development - aff10deeb7-modified)
Total wall time: 0:00:00
LAMMPS (2 Aug 2023 - Development - aff10deeb7-modified)
Total wall time: 0:00:00
LAMMPS (2 Aug 2023 - Development - aff10deeb7-modified)
Total wall time: 0:00:00
LAMMPS (2 Aug 2023 - Development - aff10deeb7-modified)
Total wall time: 0:00:00
LAMMPS (2 Aug 2023 - Development - aff10deeb7-modified)
Total wall time: 0:00:00
LAMMPS (2 Aug 2023 - Development - aff10deeb7-modified)
Total wall time: 0:00:00
LAMMPS (2 Aug 2023 - Development - aff10deeb7-modified)
Total wall time: 0:00:00
LAMMPS (2 Aug 2023 - Development - aff10deeb7-modified)
Total wall time: 0:00:00
LAMMPS (2 Aug 2023 - Development - aff10deeb7-modified)
Total wall time: 0:00:00
LAMMPS (2 Aug 2023 - Development - aff10deeb7-modified)
Total wall time: 0:00:00
LAMMPS (2 Aug 2023 - Development - aff10deeb7-modified)
Total wall time: 0:00:00
LAMMPS (2 Aug 2023 - Development - aff10deeb7-modified)
Total wall time: 0:00:00
LAMMPS (2 Aug 2023 - Development - aff10deeb7-modified)
Total wall time: 0:00:00
LAMMPS (2 Aug 2023 - Development - aff10deeb7-modified)
Total wall time: 0:00:00
LAMMPS (2 Aug 2023 - Development - aff10deeb7-modified)
Total wall time: 0:00:00
LAMMPS (2 Aug 2023 - Development - aff10deeb7-modified)
Total wall time: 0:00:00
LAMMPS (2 Aug 2023 - Development - aff10deeb7-modified)
Total wall time: 0:00:00
LAMMPS (2 Aug 2023 - Development - aff10deeb7-modified)
Total wall time: 0:00:00
LAMMPS (2 Aug 2023 - Development - aff10deeb7-modified)
Total wall time: 0:00:00
LAMMPS (2 Aug 2023 - Development - aff10deeb7-modified)
Total wall time: 0:00:00
LAMMPS (2 Aug 2023 - Development - aff10deeb7-modified)
Total wall time: 0:00:00
LAMMPS (2 Aug 2023 - Development - aff10deeb7-modified)
Total wall time: 0:00:00
LAMMPS (2 Aug 2023 - Development - aff10deeb7-modified)
Total wall time: 0:00:00
LAMMPS (2 Aug 2023 - Development - aff10deeb7-modified)
Total wall time: 0:00:00
LAMMPS (2 Aug 2023 - Development - aff10deeb7-modified)
Total wall time: 0:00:00
LAMMPS (2 Aug 2023 - Development - aff10deeb7-modified)
Total wall time: 0:00:00
LAMMPS (2 Aug 2023 - Development - aff10deeb7-modified)
Total wall time: 0:00:00
LAMMPS (2 Aug 2023 - Development - aff10deeb7-modified)
Total wall time: 0:00:00
LAMMPS (2 Aug 2023 - Development - aff10deeb7-modified)
Total wall time: 0:00:00
LAMMPS (2 Aug 2023 - Development - aff10deeb7-modified)
Total wall time: 0:00:00
LAMMPS (2 Aug 2023 - Development - aff10deeb7-modified)
Total wall time: 0:00:00
LAMMPS (2 Aug 2023 - Development - aff10deeb7-modified)
Total wall time: 0:00:00
LAMMPS (2 Aug 2023 - Development - aff10deeb7-modified)
Total wall time: 0:00:00
LAMMPS (2 Aug 2023 - Development - aff10deeb7-modified)
Total wall time: 0:00:00
LAMMPS (2 Aug 2023 - Development - aff10deeb7-modified)
Total wall time: 0:00:00
LAMMPS (2 Aug 2023 - Development - aff10deeb7-modified)
Total wall time: 0:00:00
LAMMPS (2 Aug 2023 - Development - aff10deeb7-modified)
Total wall time: 0:00:00
LAMMPS (2 Aug 2023 - Development - aff10deeb7-modified)
Total wall time: 0:00:00
LAMMPS (2 Aug 2023 - Development - aff10deeb7-modified)
Total wall time: 0:00:00
LAMMPS (2 Aug 2023 - Development - aff10deeb7-modified)
Total wall time: 0:00:00
LAMMPS (2 Aug 2023 - Development - aff10deeb7-modified)
Total wall time: 0:00:00
LAMMPS (2 Aug 2023 - Development - aff10deeb7-modified)
Total wall time: 0:00:00
LAMMPS (2 Aug 2023 - Development - aff10deeb7-modified)
Total wall time: 0:00:00
LAMMPS (2 Aug 2023 - Development - aff10deeb7-modified)
Total wall time: 0:00:00
LAMMPS (2 Aug 2023 - Development - aff10deeb7-modified)
Total wall time: 0:00:00
LAMMPS (2 Aug 2023 - Development - aff10deeb7-modified)
Total wall time: 0:00:00
LAMMPS (2 Aug 2023 - Development - aff10deeb7-modified)
Total wall time: 0:00:00
LAMMPS (2 Aug 2023 - Development - aff10deeb7-modified)
Total wall time: 0:00:00
LAMMPS (2 Aug 2023 - Development - aff10deeb7-modified)
Total wall time: 0:00:00
LAMMPS (2 Aug 2023 - Development - aff10deeb7-modified)
Total wall time: 0:00:00
LAMMPS (2 Aug 2023 - Development - aff10deeb7-modified)
Total wall time: 0:00:00
LAMMPS (2 Aug 2023 - Development - aff10deeb7-modified)
Total wall time: 0:00:00
LAMMPS (2 Aug 2023 - Development - aff10deeb7-modified)
Total wall time: 0:00:00
LAMMPS (2 Aug 2023 - Development - aff10deeb7-modified)
Total wall time: 0:00:00
LAMMPS (2 Aug 2023 - Development - aff10deeb7-modified)
Total wall time: 0:00:00
LAMMPS (2 Aug 2023 - Development - aff10deeb7-modified)
Total wall time: 0:00:00
LAMMPS (2 Aug 2023 - Development - aff10deeb7-modified)
Total wall time: 0:00:00
LAMMPS (2 Aug 2023 - Development - aff10deeb7-modified)
Total wall time: 0:00:00
LAMMPS (2 Aug 2023 - Development - aff10deeb7-modified)
Total wall time: 0:00:00
LAMMPS (2 Aug 2023 - Development - aff10deeb7-modified)
Total wall time: 0:00:00
LAMMPS (2 Aug 2023 - Development - aff10deeb7-modified)
Total wall time: 0:00:00
LAMMPS (2 Aug 2023 - Development - aff10deeb7-modified)
Total wall time: 0:00:00
LAMMPS (2 Aug 2023 - Development - aff10deeb7-modified)
Total wall time: 0:00:00
LAMMPS (2 Aug 2023 - Development - aff10deeb7-modified)
Total wall time: 0:00:00
LAMMPS (2 Aug 2023 - Development - aff10deeb7-modified)
Total wall time: 0:00:00
LAMMPS (2 Aug 2023 - Development - aff10deeb7-modified)
Total wall time: 0:00:00
LAMMPS (2 Aug 2023 - Development - aff10deeb7-modified)
Total wall time: 0:00:00
LAMMPS (2 Aug 2023 - Development - aff10deeb7-modified)
Total wall time: 0:00:00
LAMMPS (2 Aug 2023 - Development - aff10deeb7-modified)
Total wall time: 0:00:00
LAMMPS (2 Aug 2023 - Development - aff10deeb7-modified)
Total wall time: 0:00:00
LAMMPS (2 Aug 2023 - Development - aff10deeb7-modified)
Total wall time: 0:00:00
LAMMPS (2 Aug 2023 - Development - aff10deeb7-modified)
Total wall time: 0:00:00
LAMMPS (2 Aug 2023 - Development - aff10deeb7-modified)
Total wall time: 0:00:00
LAMMPS (2 Aug 2023 - Development - aff10deeb7-modified)
Total wall time: 0:00:00
LAMMPS (2 Aug 2023 - Development - aff10deeb7-modified)
Total wall time: 0:00:00
LAMMPS (2 Aug 2023 - Development - aff10deeb7-modified)
Total wall time: 0:00:00
LAMMPS (2 Aug 2023 - Development - aff10deeb7-modified)
Total wall time: 0:00:00
LAMMPS (2 Aug 2023 - Development - aff10deeb7-modified)
Total wall time: 0:00:00
LAMMPS (2 Aug 2023 - Development - aff10deeb7-modified)
Total wall time: 0:00:00
LAMMPS (2 Aug 2023 - Development - aff10deeb7-modified)
Total wall time: 0:00:00
LAMMPS (2 Aug 2023 - Development - aff10deeb7-modified)
Total wall time: 0:00:00
LAMMPS (2 Aug 2023 - Development - aff10deeb7-modified)
Total wall time: 0:00:00
LAMMPS (2 Aug 2023 - Development - aff10deeb7-modified)
Total wall time: 0:00:00
LAMMPS (2 Aug 2023 - Development - aff10deeb7-modified)
Total wall time: 0:00:00
LAMMPS (2 Aug 2023 - Development - aff10deeb7-modified)
Total wall time: 0:00:00
LAMMPS (2 Aug 2023 - Development - aff10deeb7-modified)
Total wall time: 0:00:00
LAMMPS (2 Aug 2023 - Development - aff10deeb7-modified)
Total wall time: 0:00:00
LAMMPS (2 Aug 2023 - Development - aff10deeb7-modified)
Total wall time: 0:00:00
LAMMPS (2 Aug 2023 - Development - aff10deeb7-modified)
Total wall time: 0:00:00
LAMMPS (2 Aug 2023 - Development - aff10deeb7-modified)
Total wall time: 0:00:00
LAMMPS (2 Aug 2023 - Development - aff10deeb7-modified)
Total wall time: 0:00:00
LAMMPS (2 Aug 2023 - Development - aff10deeb7-modified)
Total wall time: 0:00:00
LAMMPS (2 Aug 2023 - Development - aff10deeb7-modified)
Total wall time: 0:00:00
LAMMPS (2 Aug 2023 - Development - aff10deeb7-modified)
Total wall time: 0:00:00
LAMMPS (2 Aug 2023 - Development - aff10deeb7-modified)
Total wall time: 0:00:00
LAMMPS (2 Aug 2023 - Development - aff10deeb7-modified)
Total wall time: 0:00:00
LAMMPS (2 Aug 2023 - Development - aff10deeb7-modified)
Total wall time: 0:00:00
LAMMPS (2 Aug 2023 - Development - aff10deeb7-modified)
Total wall time: 0:00:00
LAMMPS (2 Aug 2023 - Development - aff10deeb7-modified)
Total wall time: 0:00:00
LAMMPS (2 Aug 2023 - Development - aff10deeb7-modified)
Total wall time: 0:00:00
LAMMPS (2 Aug 2023 - Development - aff10deeb7-modified)
Total wall time: 0:00:00
LAMMPS (2 Aug 2023 - Development - aff10deeb7-modified)
Total wall time: 0:00:00
LAMMPS (2 Aug 2023 - Development - aff10deeb7-modified)
Total wall time: 0:00:00
LAMMPS (2 Aug 2023 - Development - aff10deeb7-modified)
Total wall time: 0:00:00
LAMMPS (2 Aug 2023 - Development - aff10deeb7-modified)
Total wall time: 0:00:00
LAMMPS (2 Aug 2023 - Development - aff10deeb7-modified)
Total wall time: 0:00:00
LAMMPS (2 Aug 2023 - Development - aff10deeb7-modified)
Total wall time: 0:00:00
LAMMPS (2 Aug 2023 - Development - aff10deeb7-modified)
Total wall time: 0:00:00
LAMMPS (2 Aug 2023 - Development - aff10deeb7-modified)
Total wall time: 0:00:00
LAMMPS (2 Aug 2023 - Development - aff10deeb7-modified)
Total wall time: 0:00:00
LAMMPS (2 Aug 2023 - Development - aff10deeb7-modified)
Total wall time: 0:00:00
LAMMPS (2 Aug 2023 - Development - aff10deeb7-modified)
Total wall time: 0:00:00
LAMMPS (2 Aug 2023 - Development - aff10deeb7-modified)
Total wall time: 0:00:00
LAMMPS (2 Aug 2023 - Development - aff10deeb7-modified)
Total wall time: 0:00:00
LAMMPS (2 Aug 2023 - Development - aff10deeb7-modified)
Total wall time: 0:00:00
LAMMPS (2 Aug 2023 - Development - aff10deeb7-modified)
Total wall time: 0:00:00
LAMMPS (2 Aug 2023 - Development - aff10deeb7-modified)
Total wall time: 0:00:00
LAMMPS (2 Aug 2023 - Development - aff10deeb7-modified)
Total wall time: 0:00:00
LAMMPS (2 Aug 2023 - Development - aff10deeb7-modified)
Total wall time: 0:00:00
LAMMPS (2 Aug 2023 - Development - aff10deeb7-modified)
Total wall time: 0:00:00
LAMMPS (2 Aug 2023 - Development - aff10deeb7-modified)
Total wall time: 0:00:00
LAMMPS (2 Aug 2023 - Development - aff10deeb7-modified)
Total wall time: 0:00:00
LAMMPS (2 Aug 2023 - Development - aff10deeb7-modified)
Total wall time: 0:00:00
LAMMPS (2 Aug 2023 - Development - aff10deeb7-modified)
Total wall time: 0:00:00
LAMMPS (2 Aug 2023 - Development - aff10deeb7-modified)
Total wall time: 0:00:00
LAMMPS (2 Aug 2023 - Development - aff10deeb7-modified)
Total wall time: 0:00:00
LAMMPS (2 Aug 2023 - Development - aff10deeb7-modified)
Total wall time: 0:00:00
LAMMPS (2 Aug 2023 - Development - aff10deeb7-modified)
Total wall time: 0:00:00
LAMMPS (2 Aug 2023 - Development - aff10deeb7-modified)
Total wall time: 0:00:00
LAMMPS (2 Aug 2023 - Development - aff10deeb7-modified)
Total wall time: 0:00:00
LAMMPS (2 Aug 2023 - Development - aff10deeb7-modified)
Total wall time: 0:00:00
LAMMPS (2 Aug 2023 - Development - aff10deeb7-modified)
Total wall time: 0:00:00
LAMMPS (2 Aug 2023 - Development - aff10deeb7-modified)
Total wall time: 0:00:00
LAMMPS (2 Aug 2023 - Development - aff10deeb7-modified)
Total wall time: 0:00:00
LAMMPS (2 Aug 2023 - Development - aff10deeb7-modified)
Total wall time: 0:00:00
LAMMPS (2 Aug 2023 - Development - aff10deeb7-modified)
Total wall time: 0:00:00
LAMMPS (2 Aug 2023 - Development - aff10deeb7-modified)
Total wall time: 0:00:00
LAMMPS (2 Aug 2023 - Development - aff10deeb7-modified)
Total wall time: 0:00:00
LAMMPS (2 Aug 2023 - Development - aff10deeb7-modified)
Total wall time: 0:00:00
LAMMPS (2 Aug 2023 - Development - aff10deeb7-modified)
Total wall time: 0:00:00
LAMMPS (2 Aug 2023 - Development - aff10deeb7-modified)
Total wall time: 0:00:00
LAMMPS (2 Aug 2023 - Development - aff10deeb7-modified)
Total wall time: 0:00:00
LAMMPS (2 Aug 2023 - Development - aff10deeb7-modified)
Total wall time: 0:00:00
LAMMPS (2 Aug 2023 - Development - aff10deeb7-modified)
Total wall time: 0:00:00
LAMMPS (2 Aug 2023 - Development - aff10deeb7-modified)
Total wall time: 0:00:00
LAMMPS (2 Aug 2023 - Development - aff10deeb7-modified)
Total wall time: 0:00:00
LAMMPS (2 Aug 2023 - Development - aff10deeb7-modified)
Total wall time: 0:00:00
LAMMPS (2 Aug 2023 - Development - aff10deeb7-modified)
Total wall time: 0:00:00
LAMMPS (2 Aug 2023 - Development - aff10deeb7-modified)
Total wall time: 0:00:00
LAMMPS (2 Aug 2023 - Development - aff10deeb7-modified)
Total wall time: 0:00:00
LAMMPS (2 Aug 2023 - Development - aff10deeb7-modified)
Total wall time: 0:00:00
LAMMPS (2 Aug 2023 - Development - aff10deeb7-modified)
Total wall time: 0:00:00
LAMMPS (2 Aug 2023 - Development - aff10deeb7-modified)
Total wall time: 0:00:00
LAMMPS (2 Aug 2023 - Development - aff10deeb7-modified)
Total wall time: 0:00:00
LAMMPS (2 Aug 2023 - Development - aff10deeb7-modified)
Total wall time: 0:00:00
LAMMPS (2 Aug 2023 - Development - aff10deeb7-modified)
Total wall time: 0:00:00
LAMMPS (2 Aug 2023 - Development - aff10deeb7-modified)
Total wall time: 0:00:00
LAMMPS (2 Aug 2023 - Development - aff10deeb7-modified)
Total wall time: 0:00:00
LAMMPS (2 Aug 2023 - Development - aff10deeb7-modified)
Total wall time: 0:00:00
LAMMPS (2 Aug 2023 - Development - aff10deeb7-modified)
Total wall time: 0:00:00
LAMMPS (2 Aug 2023 - Development - aff10deeb7-modified)
Total wall time: 0:00:00
LAMMPS (2 Aug 2023 - Development - aff10deeb7-modified)
Total wall time: 0:00:00
LAMMPS (2 Aug 2023 - Development - aff10deeb7-modified)
Total wall time: 0:00:00
LAMMPS (2 Aug 2023 - Development - aff10deeb7-modified)
Total wall time: 0:00:00
LAMMPS (2 Aug 2023 - Development - aff10deeb7-modified)
Total wall time: 0:00:00
LAMMPS (2 Aug 2023 - Development - aff10deeb7-modified)
Total wall time: 0:00:00
LAMMPS (2 Aug 2023 - Development - aff10deeb7-modified)
Total wall time: 0:00:00
LAMMPS (2 Aug 2023 - Development - aff10deeb7-modified)
Total wall time: 0:00:00
LAMMPS (2 Aug 2023 - Development - aff10deeb7-modified)
Total wall time: 0:00:00
LAMMPS (2 Aug 2023 - Development - aff10deeb7-modified)
Total wall time: 0:00:00
LAMMPS (2 Aug 2023 - Development - aff10deeb7-modified)
Total wall time: 0:00:00
LAMMPS (2 Aug 2023 - Development - aff10deeb7-modified)
Total wall time: 0:00:00
LAMMPS (2 Aug 2023 - Development - aff10deeb7-modified)
Total wall time: 0:00:00
LAMMPS (2 Aug 2023 - Development - aff10deeb7-modified)
Total wall time: 0:00:00
LAMMPS (2 Aug 2023 - Development - aff10deeb7-modified)
Total wall time: 0:00:00
LAMMPS (2 Aug 2023 - Development - aff10deeb7-modified)
Total wall time: 0:00:00
LAMMPS (2 Aug 2023 - Development - aff10deeb7-modified)
Total wall time: 0:00:00
LAMMPS (2 Aug 2023 - Development - aff10deeb7-modified)
Total wall time: 0:00:00
LAMMPS (2 Aug 2023 - Development - aff10deeb7-modified)
Total wall time: 0:00:00
LAMMPS (2 Aug 2023 - Development - aff10deeb7-modified)
Total wall time: 0:00:00
LAMMPS (2 Aug 2023 - Development - aff10deeb7-modified)
Total wall time: 0:00:00
LAMMPS (2 Aug 2023 - Development - aff10deeb7-modified)
Total wall time: 0:00:00
LAMMPS (2 Aug 2023 - Development - aff10deeb7-modified)
Total wall time: 0:00:00
LAMMPS (2 Aug 2023 - Development - aff10deeb7-modified)
Total wall time: 0:00:00
LAMMPS (2 Aug 2023 - Development - aff10deeb7-modified)
Total wall time: 0:00:00
LAMMPS (2 Aug 2023 - Development - aff10deeb7-modified)
Total wall time: 0:00:00
LAMMPS (2 Aug 2023 - Development - aff10deeb7-modified)
Total wall time: 0:00:00
LAMMPS (2 Aug 2023 - Development - aff10deeb7-modified)
Total wall time: 0:00:00
LAMMPS (2 Aug 2023 - Development - aff10deeb7-modified)
Total wall time: 0:00:00
LAMMPS (2 Aug 2023 - Development - aff10deeb7-modified)
Total wall time: 0:00:00
LAMMPS (2 Aug 2023 - Development - aff10deeb7-modified)
Total wall time: 0:00:00
LAMMPS (2 Aug 2023 - Development - aff10deeb7-modified)
Total wall time: 0:00:00
LAMMPS (2 Aug 2023 - Development - aff10deeb7-modified)
Total wall time: 0:00:00
LAMMPS (2 Aug 2023 - Development - aff10deeb7-modified)
Total wall time: 0:00:00
LAMMPS (2 Aug 2023 - Development - aff10deeb7-modified)
Total wall time: 0:00:00
LAMMPS (2 Aug 2023 - Development - aff10deeb7-modified)
Total wall time: 0:00:00
LAMMPS (2 Aug 2023 - Development - aff10deeb7-modified)
Total wall time: 0:00:00
LAMMPS (2 Aug 2023 - Development - aff10deeb7-modified)
Total wall time: 0:00:00
LAMMPS (2 Aug 2023 - Development - aff10deeb7-modified)
Total wall time: 0:00:00
LAMMPS (2 Aug 2023 - Development - aff10deeb7-modified)
Total wall time: 0:00:00
LAMMPS (2 Aug 2023 - Development - aff10deeb7-modified)
Total wall time: 0:00:00
LAMMPS (2 Aug 2023 - Development - aff10deeb7-modified)
Total wall time: 0:00:00
LAMMPS (2 Aug 2023 - Development - aff10deeb7-modified)
Total wall time: 0:00:00
LAMMPS (2 Aug 2023 - Development - aff10deeb7-modified)
Total wall time: 0:00:00
LAMMPS (2 Aug 2023 - Development - aff10deeb7-modified)
Total wall time: 0:00:00
LAMMPS (2 Aug 2023 - Development - aff10deeb7-modified)
Total wall time: 0:00:00
LAMMPS (2 Aug 2023 - Development - aff10deeb7-modified)
Total wall time: 0:00:00
LAMMPS (2 Aug 2023 - Development - aff10deeb7-modified)
Total wall time: 0:00:00
LAMMPS (2 Aug 2023 - Development - aff10deeb7-modified)
Total wall time: 0:00:00
LAMMPS (2 Aug 2023 - Development - aff10deeb7-modified)
Total wall time: 0:00:00
LAMMPS (2 Aug 2023 - Development - aff10deeb7-modified)
Total wall time: 0:00:00
LAMMPS (2 Aug 2023 - Development - aff10deeb7-modified)
Total wall time: 0:00:00
LAMMPS (2 Aug 2023 - Development - aff10deeb7-modified)
Total wall time: 0:00:00
LAMMPS (2 Aug 2023 - Development - aff10deeb7-modified)
Total wall time: 0:00:00
LAMMPS (2 Aug 2023 - Development - aff10deeb7-modified)
Total wall time: 0:00:00
LAMMPS (2 Aug 2023 - Development - aff10deeb7-modified)
Total wall time: 0:00:00
LAMMPS (2 Aug 2023 - Development - aff10deeb7-modified)
Total wall time: 0:00:00
LAMMPS (2 Aug 2023 - Development - aff10deeb7-modified)
Total wall time: 0:00:00
LAMMPS (2 Aug 2023 - Development - aff10deeb7-modified)
Total wall time: 0:00:00
LAMMPS (2 Aug 2023 - Development - aff10deeb7-modified)
Total wall time: 0:00:00
LAMMPS (2 Aug 2023 - Development - aff10deeb7-modified)
Total wall time: 0:00:00
LAMMPS (2 Aug 2023 - Development - aff10deeb7-modified)
Total wall time: 0:00:00
LAMMPS (2 Aug 2023 - Development - aff10deeb7-modified)
Total wall time: 0:00:00
LAMMPS (2 Aug 2023 - Development - aff10deeb7-modified)
Total wall time: 0:00:00
LAMMPS (2 Aug 2023 - Development - aff10deeb7-modified)
Total wall time: 0:00:00
LAMMPS (2 Aug 2023 - Development - aff10deeb7-modified)
Total wall time: 0:00:00
LAMMPS (2 Aug 2023 - Development - aff10deeb7-modified)
Total wall time: 0:00:00
LAMMPS (2 Aug 2023 - Development - aff10deeb7-modified)
Total wall time: 0:00:00
LAMMPS (2 Aug 2023 - Development - aff10deeb7-modified)
Total wall time: 0:00:00
LAMMPS (2 Aug 2023 - Development - aff10deeb7-modified)
Total wall time: 0:00:00
LAMMPS (2 Aug 2023 - Development - aff10deeb7-modified)
Total wall time: 0:00:00
LAMMPS (2 Aug 2023 - Development - aff10deeb7-modified)
Total wall time: 0:00:00
LAMMPS (2 Aug 2023 - Development - aff10deeb7-modified)
Total wall time: 0:00:00
LAMMPS (2 Aug 2023 - Development - aff10deeb7-modified)
Total wall time: 0:00:00
LAMMPS (2 Aug 2023 - Development - aff10deeb7-modified)
Total wall time: 0:00:00
LAMMPS (2 Aug 2023 - Development - aff10deeb7-modified)
Total wall time: 0:00:00
LAMMPS (2 Aug 2023 - Development - aff10deeb7-modified)
Total wall time: 0:00:00
LAMMPS (2 Aug 2023 - Development - aff10deeb7-modified)
Total wall time: 0:00:00
LAMMPS (2 Aug 2023 - Development - aff10deeb7-modified)
Total wall time: 0:00:00
LAMMPS (2 Aug 2023 - Development - aff10deeb7-modified)
Total wall time: 0:00:00
LAMMPS (2 Aug 2023 - Development - aff10deeb7-modified)
Total wall time: 0:00:00
LAMMPS (2 Aug 2023 - Development - aff10deeb7-modified)
Total wall time: 0:00:00
LAMMPS (2 Aug 2023 - Development - aff10deeb7-modified)
Total wall time: 0:00:00
LAMMPS (2 Aug 2023 - Development - aff10deeb7-modified)
Total wall time: 0:00:00
LAMMPS (2 Aug 2023 - Development - aff10deeb7-modified)
Total wall time: 0:00:00
LAMMPS (2 Aug 2023 - Development - aff10deeb7-modified)
Total wall time: 0:00:00
LAMMPS (2 Aug 2023 - Development - aff10deeb7-modified)
Total wall time: 0:00:00
LAMMPS (2 Aug 2023 - Development - aff10deeb7-modified)
Total wall time: 0:00:00
LAMMPS (2 Aug 2023 - Development - aff10deeb7-modified)
Total wall time: 0:00:00
LAMMPS (2 Aug 2023 - Development - aff10deeb7-modified)
Total wall time: 0:00:00
LAMMPS (2 Aug 2023 - Development - aff10deeb7-modified)
Total wall time: 0:00:00
LAMMPS (2 Aug 2023 - Development - aff10deeb7-modified)
Total wall time: 0:00:00
LAMMPS (2 Aug 2023 - Development - aff10deeb7-modified)
Total wall time: 0:00:00
LAMMPS (2 Aug 2023 - Development - aff10deeb7-modified)
Total wall time: 0:00:00
LAMMPS (2 Aug 2023 - Development - aff10deeb7-modified)
Total wall time: 0:00:00
LAMMPS (2 Aug 2023 - Development - aff10deeb7-modified)
Total wall time: 0:00:00
LAMMPS (2 Aug 2023 - Development - aff10deeb7-modified)
Total wall time: 0:00:00
LAMMPS (2 Aug 2023 - Development - aff10deeb7-modified)
Total wall time: 0:00:00
LAMMPS (2 Aug 2023 - Development - aff10deeb7-modified)
Total wall time: 0:00:00
LAMMPS (2 Aug 2023 - Development - aff10deeb7-modified)
Total wall time: 0:00:00
LAMMPS (2 Aug 2023 - Development - aff10deeb7-modified)
Total wall time: 0:00:00
LAMMPS (2 Aug 2023 - Development - aff10deeb7-modified)
Total wall time: 0:00:00
LAMMPS (2 Aug 2023 - Development - aff10deeb7-modified)
Total wall time: 0:00:00
LAMMPS (2 Aug 2023 - Development - aff10deeb7-modified)
Total wall time: 0:00:00
LAMMPS (2 Aug 2023 - Development - aff10deeb7-modified)
Total wall time: 0:00:00
LAMMPS (2 Aug 2023 - Development - aff10deeb7-modified)
Total wall time: 0:00:00
LAMMPS (2 Aug 2023 - Development - aff10deeb7-modified)
Total wall time: 0:00:00
LAMMPS (2 Aug 2023 - Development - aff10deeb7-modified)
Total wall time: 0:00:00
LAMMPS (2 Aug 2023 - Development - aff10deeb7-modified)
Total wall time: 0:00:00
LAMMPS (2 Aug 2023 - Development - aff10deeb7-modified)
Total wall time: 0:00:00
LAMMPS (2 Aug 2023 - Development - aff10deeb7-modified)
Total wall time: 0:00:00
LAMMPS (2 Aug 2023 - Development - aff10deeb7-modified)
Total wall time: 0:00:00
LAMMPS (2 Aug 2023 - Development - aff10deeb7-modified)
Total wall time: 0:00:00
LAMMPS (2 Aug 2023 - Development - aff10deeb7-modified)
Total wall time: 0:00:00
LAMMPS (2 Aug 2023 - Development - aff10deeb7-modified)
Total wall time: 0:00:00
LAMMPS (2 Aug 2023 - Development - aff10deeb7-modified)
Total wall time: 0:00:00
LAMMPS (2 Aug 2023 - Development - aff10deeb7-modified)
Total wall time: 0:00:00
LAMMPS (2 Aug 2023 - Development - aff10deeb7-modified)
Total wall time: 0:00:00
LAMMPS (2 Aug 2023 - Development - aff10deeb7-modified)
Total wall time: 0:00:00
LAMMPS (2 Aug 2023 - Development - aff10deeb7-modified)
Total wall time: 0:00:00
LAMMPS (2 Aug 2023 - Development - aff10deeb7-modified)
Total wall time: 0:00:00
LAMMPS (2 Aug 2023 - Development - aff10deeb7-modified)
Total wall time: 0:00:00
LAMMPS (2 Aug 2023 - Development - aff10deeb7-modified)
Total wall time: 0:00:00
LAMMPS (2 Aug 2023 - Development - aff10deeb7-modified)
Total wall time: 0:00:00
LAMMPS (2 Aug 2023 - Development - aff10deeb7-modified)
Total wall time: 0:00:00
LAMMPS (2 Aug 2023 - Development - aff10deeb7-modified)
Total wall time: 0:00:00
LAMMPS (2 Aug 2023 - Development - aff10deeb7-modified)
Total wall time: 0:00:00
LAMMPS (2 Aug 2023 - Development - aff10deeb7-modified)
Total wall time: 0:00:00
LAMMPS (2 Aug 2023 - Development - aff10deeb7-modified)
Total wall time: 0:00:00
LAMMPS (2 Aug 2023 - Development - aff10deeb7-modified)
Total wall time: 0:00:00
LAMMPS (2 Aug 2023 - Development - aff10deeb7-modified)
Total wall time: 0:00:00
LAMMPS (2 Aug 2023 - Development - aff10deeb7-modified)
Total wall time: 0:00:00
LAMMPS (2 Aug 2023 - Development - aff10deeb7-modified)
Total wall time: 0:00:00
LAMMPS (2 Aug 2023 - Development - aff10deeb7-modified)
Total wall time: 0:00:00
LAMMPS (2 Aug 2023 - Development - aff10deeb7-modified)
Total wall time: 0:00:00
LAMMPS (2 Aug 2023 - Development - aff10deeb7-modified)
Total wall time: 0:00:00
LAMMPS (2 Aug 2023 - Development - aff10deeb7-modified)
Total wall time: 0:00:00
LAMMPS (2 Aug 2023 - Development - aff10deeb7-modified)
Total wall time: 0:00:00
LAMMPS (2 Aug 2023 - Development - aff10deeb7-modified)
Total wall time: 0:00:00
LAMMPS (2 Aug 2023 - Development - aff10deeb7-modified)
Total wall time: 0:00:00
LAMMPS (2 Aug 2023 - Development - aff10deeb7-modified)
Total wall time: 0:00:00
LAMMPS (2 Aug 2023 - Development - aff10deeb7-modified)
Total wall time: 0:00:00
LAMMPS (2 Aug 2023 - Development - aff10deeb7-modified)
Total wall time: 0:00:00
LAMMPS (2 Aug 2023 - Development - aff10deeb7-modified)
Total wall time: 0:00:00
LAMMPS (2 Aug 2023 - Development - aff10deeb7-modified)
Total wall time: 0:00:00
LAMMPS (2 Aug 2023 - Development - aff10deeb7-modified)
Total wall time: 0:00:00
LAMMPS (2 Aug 2023 - Development - aff10deeb7-modified)
Total wall time: 0:00:00
LAMMPS (2 Aug 2023 - Development - aff10deeb7-modified)
Total wall time: 0:00:00
LAMMPS (2 Aug 2023 - Development - aff10deeb7-modified)
Total wall time: 0:00:00
LAMMPS (2 Aug 2023 - Development - aff10deeb7-modified)
Total wall time: 0:00:00
LAMMPS (2 Aug 2023 - Development - aff10deeb7-modified)
Total wall time: 0:00:00
LAMMPS (2 Aug 2023 - Development - aff10deeb7-modified)
Total wall time: 0:00:00
LAMMPS (2 Aug 2023 - Development - aff10deeb7-modified)
Total wall time: 0:00:00
LAMMPS (2 Aug 2023 - Development - aff10deeb7-modified)
Total wall time: 0:00:00
LAMMPS (2 Aug 2023 - Development - aff10deeb7-modified)
Total wall time: 0:00:00
LAMMPS (2 Aug 2023 - Development - aff10deeb7-modified)
Total wall time: 0:00:00
LAMMPS (2 Aug 2023 - Development - aff10deeb7-modified)
Total wall time: 0:00:00
LAMMPS (2 Aug 2023 - Development - aff10deeb7-modified)
Total wall time: 0:00:00
LAMMPS (2 Aug 2023 - Development - aff10deeb7-modified)
Total wall time: 0:00:00
LAMMPS (2 Aug 2023 - Development - aff10deeb7-modified)
Total wall time: 0:00:00
LAMMPS (2 Aug 2023 - Development - aff10deeb7-modified)
Total wall time: 0:00:00
LAMMPS (2 Aug 2023 - Development - aff10deeb7-modified)
Total wall time: 0:00:00
LAMMPS (2 Aug 2023 - Development - aff10deeb7-modified)
Total wall time: 0:00:00
LAMMPS (2 Aug 2023 - Development - aff10deeb7-modified)
Total wall time: 0:00:00
LAMMPS (2 Aug 2023 - Development - aff10deeb7-modified)
Total wall time: 0:00:00
LAMMPS (2 Aug 2023 - Development - aff10deeb7-modified)
Total wall time: 0:00:00
LAMMPS (2 Aug 2023 - Development - aff10deeb7-modified)
Total wall time: 0:00:00
LAMMPS (2 Aug 2023 - Development - aff10deeb7-modified)
Total wall time: 0:00:00
LAMMPS (2 Aug 2023 - Development - aff10deeb7-modified)
Total wall time: 0:00:00
LAMMPS (2 Aug 2023 - Development - aff10deeb7-modified)
Total wall time: 0:00:00
LAMMPS (2 Aug 2023 - Development - aff10deeb7-modified)
Total wall time: 0:00:00
LAMMPS (2 Aug 2023 - Development - aff10deeb7-modified)
Total wall time: 0:00:00
LAMMPS (2 Aug 2023 - Development - aff10deeb7-modified)
Total wall time: 0:00:00
LAMMPS (2 Aug 2023 - Development - aff10deeb7-modified)
Total wall time: 0:00:00
LAMMPS (2 Aug 2023 - Development - aff10deeb7-modified)
Total wall time: 0:00:00
LAMMPS (2 Aug 2023 - Development - aff10deeb7-modified)
Total wall time: 0:00:00
LAMMPS (2 Aug 2023 - Development - aff10deeb7-modified)
Total wall time: 0:00:00
LAMMPS (2 Aug 2023 - Development - aff10deeb7-modified)
Total wall time: 0:00:00
LAMMPS (2 Aug 2023 - Development - aff10deeb7-modified)
Total wall time: 0:00:00
LAMMPS (2 Aug 2023 - Development - aff10deeb7-modified)
Total wall time: 0:00:00
LAMMPS (2 Aug 2023 - Development - aff10deeb7-modified)
Total wall time: 0:00:00
LAMMPS (2 Aug 2023 - Development - aff10deeb7-modified)
Total wall time: 0:00:00
LAMMPS (2 Aug 2023 - Development - aff10deeb7-modified)
Total wall time: 0:00:00
LAMMPS (2 Aug 2023 - Development - aff10deeb7-modified)
Total wall time: 0:00:00
LAMMPS (2 Aug 2023 - Development - aff10deeb7-modified)
Total wall time: 0:00:00
LAMMPS (2 Aug 2023 - Development - aff10deeb7-modified)
Total wall time: 0:00:00
LAMMPS (2 Aug 2023 - Development - aff10deeb7-modified)
Total wall time: 0:00:00
LAMMPS (2 Aug 2023 - Development - aff10deeb7-modified)
Total wall time: 0:00:00
LAMMPS (2 Aug 2023 - Development - aff10deeb7-modified)
Total wall time: 0:00:00
LAMMPS (2 Aug 2023 - Development - aff10deeb7-modified)
Total wall time: 0:00:00
LAMMPS (2 Aug 2023 - Development - aff10deeb7-modified)
Total wall time: 0:00:00
LAMMPS (2 Aug 2023 - Development - aff10deeb7-modified)
Total wall time: 0:00:00
LAMMPS (2 Aug 2023 - Development - aff10deeb7-modified)
Total wall time: 0:00:00
LAMMPS (2 Aug 2023 - Development - aff10deeb7-modified)
Total wall time: 0:00:00
LAMMPS (2 Aug 2023 - Development - aff10deeb7-modified)
Total wall time: 0:00:00
LAMMPS (2 Aug 2023 - Development - aff10deeb7-modified)
Total wall time: 0:00:00
LAMMPS (2 Aug 2023 - Development - aff10deeb7-modified)
Total wall time: 0:00:00
LAMMPS (2 Aug 2023 - Development - aff10deeb7-modified)
Total wall time: 0:00:00
LAMMPS (2 Aug 2023 - Development - aff10deeb7-modified)
Total wall time: 0:00:00
LAMMPS (2 Aug 2023 - Development - aff10deeb7-modified)
Total wall time: 0:00:00
LAMMPS (2 Aug 2023 - Development - aff10deeb7-modified)
Total wall time: 0:00:00
LAMMPS (2 Aug 2023 - Development - aff10deeb7-modified)
Total wall time: 0:00:00
LAMMPS (2 Aug 2023 - Development - aff10deeb7-modified)
Total wall time: 0:00:00
LAMMPS (2 Aug 2023 - Development - aff10deeb7-modified)
Total wall time: 0:00:00
LAMMPS (2 Aug 2023 - Development - aff10deeb7-modified)
Total wall time: 0:00:00
LAMMPS (2 Aug 2023 - Development - aff10deeb7-modified)
Total wall time: 0:00:00
LAMMPS (2 Aug 2023 - Development - aff10deeb7-modified)
Total wall time: 0:00:00
LAMMPS (2 Aug 2023 - Development - aff10deeb7-modified)
Total wall time: 0:00:00
LAMMPS (2 Aug 2023 - Development - aff10deeb7-modified)
Total wall time: 0:00:00
LAMMPS (2 Aug 2023 - Development - aff10deeb7-modified)
Total wall time: 0:00:00
LAMMPS (2 Aug 2023 - Development - aff10deeb7-modified)
Total wall time: 0:00:00
LAMMPS (2 Aug 2023 - Development - aff10deeb7-modified)
Total wall time: 0:00:00
LAMMPS (2 Aug 2023 - Development - aff10deeb7-modified)
Total wall time: 0:00:00
LAMMPS (2 Aug 2023 - Development - aff10deeb7-modified)
Total wall time: 0:00:00
LAMMPS (2 Aug 2023 - Development - aff10deeb7-modified)
Total wall time: 0:00:00
LAMMPS (2 Aug 2023 - Development - aff10deeb7-modified)
Total wall time: 0:00:00
LAMMPS (2 Aug 2023 - Development - aff10deeb7-modified)
Total wall time: 0:00:00
LAMMPS (2 Aug 2023 - Development - aff10deeb7-modified)
Total wall time: 0:00:00
LAMMPS (2 Aug 2023 - Development - aff10deeb7-modified)
Total wall time: 0:00:00
LAMMPS (2 Aug 2023 - Development - aff10deeb7-modified)
Total wall time: 0:00:00
LAMMPS (2 Aug 2023 - Development - aff10deeb7-modified)
Total wall time: 0:00:00
LAMMPS (2 Aug 2023 - Development - aff10deeb7-modified)
Total wall time: 0:00:00
LAMMPS (2 Aug 2023 - Development - aff10deeb7-modified)
Total wall time: 0:00:00
LAMMPS (2 Aug 2023 - Development - aff10deeb7-modified)
Total wall time: 0:00:00
LAMMPS (2 Aug 2023 - Development - aff10deeb7-modified)
Total wall time: 0:00:00
LAMMPS (2 Aug 2023 - Development - aff10deeb7-modified)
Total wall time: 0:00:00
LAMMPS (2 Aug 2023 - Development - aff10deeb7-modified)
Total wall time: 0:00:00
LAMMPS (2 Aug 2023 - Development - aff10deeb7-modified)
Total wall time: 0:00:00
LAMMPS (2 Aug 2023 - Development - aff10deeb7-modified)
Total wall time: 0:00:00
LAMMPS (2 Aug 2023 - Development - aff10deeb7-modified)
Total wall time: 0:00:00
LAMMPS (2 Aug 2023 - Development - aff10deeb7-modified)
Total wall time: 0:00:00
LAMMPS (2 Aug 2023 - Development - aff10deeb7-modified)
Total wall time: 0:00:00
LAMMPS (2 Aug 2023 - Development - aff10deeb7-modified)
Total wall time: 0:00:00
LAMMPS (2 Aug 2023 - Development - aff10deeb7-modified)
Total wall time: 0:00:00
LAMMPS (2 Aug 2023 - Development - aff10deeb7-modified)
Total wall time: 0:00:00
LAMMPS (2 Aug 2023 - Development - aff10deeb7-modified)
Total wall time: 0:00:00
LAMMPS (2 Aug 2023 - Development - aff10deeb7-modified)
Total wall time: 0:00:00
LAMMPS (2 Aug 2023 - Development - aff10deeb7-modified)
Total wall time: 0:00:00
LAMMPS (2 Aug 2023 - Development - aff10deeb7-modified)
Total wall time: 0:00:00
LAMMPS (2 Aug 2023 - Development - aff10deeb7-modified)
Total wall time: 0:00:00
LAMMPS (2 Aug 2023 - Development - aff10deeb7-modified)
Total wall time: 0:00:00
LAMMPS (2 Aug 2023 - Development - aff10deeb7-modified)
Total wall time: 0:00:00
LAMMPS (2 Aug 2023 - Development - aff10deeb7-modified)
Total wall time: 0:00:00
LAMMPS (2 Aug 2023 - Development - aff10deeb7-modified)
Total wall time: 0:00:00
LAMMPS (2 Aug 2023 - Development - aff10deeb7-modified)
Total wall time: 0:00:00
LAMMPS (2 Aug 2023 - Development - aff10deeb7-modified)
Total wall time: 0:00:00
LAMMPS (2 Aug 2023 - Development - aff10deeb7-modified)
Total wall time: 0:00:00
LAMMPS (2 Aug 2023 - Development - aff10deeb7-modified)
Total wall time: 0:00:00
LAMMPS (2 Aug 2023 - Development - aff10deeb7-modified)
Total wall time: 0:00:00
LAMMPS (2 Aug 2023 - Development - aff10deeb7-modified)
Total wall time: 0:00:00
LAMMPS (2 Aug 2023 - Development - aff10deeb7-modified)
Total wall time: 0:00:00
LAMMPS (2 Aug 2023 - Development - aff10deeb7-modified)
Total wall time: 0:00:00
LAMMPS (2 Aug 2023 - Development - aff10deeb7-modified)
Total wall time: 0:00:00
LAMMPS (2 Aug 2023 - Development - aff10deeb7-modified)
Total wall time: 0:00:00
LAMMPS (2 Aug 2023 - Development - aff10deeb7-modified)
Total wall time: 0:00:00
LAMMPS (2 Aug 2023 - Development - aff10deeb7-modified)
Total wall time: 0:00:00
LAMMPS (2 Aug 2023 - Development - aff10deeb7-modified)
Total wall time: 0:00:00
LAMMPS (2 Aug 2023 - Development - aff10deeb7-modified)
Total wall time: 0:00:00
LAMMPS (2 Aug 2023 - Development - aff10deeb7-modified)
Total wall time: 0:00:00
LAMMPS (2 Aug 2023 - Development - aff10deeb7-modified)
Total wall time: 0:00:00
LAMMPS (2 Aug 2023 - Development - aff10deeb7-modified)
Total wall time: 0:00:00
LAMMPS (2 Aug 2023 - Development - aff10deeb7-modified)
Total wall time: 0:00:00
LAMMPS (2 Aug 2023 - Development - aff10deeb7-modified)
Total wall time: 0:00:00
LAMMPS (2 Aug 2023 - Development - aff10deeb7-modified)
Total wall time: 0:00:00
LAMMPS (2 Aug 2023 - Development - aff10deeb7-modified)
Total wall time: 0:00:00
LAMMPS (2 Aug 2023 - Development - aff10deeb7-modified)
Total wall time: 0:00:00
LAMMPS (2 Aug 2023 - Development - aff10deeb7-modified)
Total wall time: 0:00:00
LAMMPS (2 Aug 2023 - Development - aff10deeb7-modified)
Total wall time: 0:00:00
LAMMPS (2 Aug 2023 - Development - aff10deeb7-modified)
Total wall time: 0:00:00
LAMMPS (2 Aug 2023 - Development - aff10deeb7-modified)
Total wall time: 0:00:00
LAMMPS (2 Aug 2023 - Development - aff10deeb7-modified)
Total wall time: 0:00:00
LAMMPS (2 Aug 2023 - Development - aff10deeb7-modified)
Total wall time: 0:00:00
LAMMPS (2 Aug 2023 - Development - aff10deeb7-modified)
Total wall time: 0:00:00
LAMMPS (2 Aug 2023 - Development - aff10deeb7-modified)
Total wall time: 0:00:00
LAMMPS (2 Aug 2023 - Development - aff10deeb7-modified)
Total wall time: 0:00:00
LAMMPS (2 Aug 2023 - Development - aff10deeb7-modified)
Total wall time: 0:00:00
LAMMPS (2 Aug 2023 - Development - aff10deeb7-modified)
Total wall time: 0:00:00
LAMMPS (2 Aug 2023 - Development - aff10deeb7-modified)
Total wall time: 0:00:00
LAMMPS (2 Aug 2023 - Development - aff10deeb7-modified)
Total wall time: 0:00:00
LAMMPS (2 Aug 2023 - Development - aff10deeb7-modified)
Total wall time: 0:00:00
LAMMPS (2 Aug 2023 - Development - aff10deeb7-modified)
Total wall time: 0:00:00
LAMMPS (2 Aug 2023 - Development - aff10deeb7-modified)
Total wall time: 0:00:00
LAMMPS (2 Aug 2023 - Development - aff10deeb7-modified)
Total wall time: 0:00:00
LAMMPS (2 Aug 2023 - Development - aff10deeb7-modified)
Total wall time: 0:00:00
LAMMPS (2 Aug 2023 - Development - aff10deeb7-modified)
Total wall time: 0:00:00
LAMMPS (2 Aug 2023 - Development - aff10deeb7-modified)
Total wall time: 0:00:00
LAMMPS (2 Aug 2023 - Development - aff10deeb7-modified)
Total wall time: 0:00:00
LAMMPS (2 Aug 2023 - Development - aff10deeb7-modified)
Total wall time: 0:00:00
LAMMPS (2 Aug 2023 - Development - aff10deeb7-modified)
Total wall time: 0:00:00
LAMMPS (2 Aug 2023 - Development - aff10deeb7-modified)
Total wall time: 0:00:00
LAMMPS (2 Aug 2023 - Development - aff10deeb7-modified)
Total wall time: 0:00:00
LAMMPS (2 Aug 2023 - Development - aff10deeb7-modified)
Total wall time: 0:00:00
LAMMPS (2 Aug 2023 - Development - aff10deeb7-modified)
Total wall time: 0:00:00
LAMMPS (2 Aug 2023 - Development - aff10deeb7-modified)
Total wall time: 0:00:00
LAMMPS (2 Aug 2023 - Development - aff10deeb7-modified)
Total wall time: 0:00:00
LAMMPS (2 Aug 2023 - Development - aff10deeb7-modified)
Total wall time: 0:00:00
LAMMPS (2 Aug 2023 - Development - aff10deeb7-modified)
Total wall time: 0:00:00
LAMMPS (2 Aug 2023 - Development - aff10deeb7-modified)
Total wall time: 0:00:00
LAMMPS (2 Aug 2023 - Development - aff10deeb7-modified)
Total wall time: 0:00:00
LAMMPS (2 Aug 2023 - Development - aff10deeb7-modified)
Total wall time: 0:00:00
LAMMPS (2 Aug 2023 - Development - aff10deeb7-modified)
Total wall time: 0:00:00
LAMMPS (2 Aug 2023 - Development - aff10deeb7-modified)
Total wall time: 0:00:00
LAMMPS (2 Aug 2023 - Development - aff10deeb7-modified)
Total wall time: 0:00:00
LAMMPS (2 Aug 2023 - Development - aff10deeb7-modified)
Total wall time: 0:00:00
LAMMPS (2 Aug 2023 - Development - aff10deeb7-modified)
Total wall time: 0:00:00
LAMMPS (2 Aug 2023 - Development - aff10deeb7-modified)
Total wall time: 0:00:00
LAMMPS (2 Aug 2023 - Development - aff10deeb7-modified)
Total wall time: 0:00:00
LAMMPS (2 Aug 2023 - Development - aff10deeb7-modified)
Total wall time: 0:00:00
LAMMPS (2 Aug 2023 - Development - aff10deeb7-modified)
Total wall time: 0:00:00
LAMMPS (2 Aug 2023 - Development - aff10deeb7-modified)
Total wall time: 0:00:00
LAMMPS (2 Aug 2023 - Development - aff10deeb7-modified)
Total wall time: 0:00:00
LAMMPS (2 Aug 2023 - Development - aff10deeb7-modified)
Total wall time: 0:00:00
LAMMPS (2 Aug 2023 - Development - aff10deeb7-modified)
Total wall time: 0:00:00
LAMMPS (2 Aug 2023 - Development - aff10deeb7-modified)
Total wall time: 0:00:00
LAMMPS (2 Aug 2023 - Development - aff10deeb7-modified)
Total wall time: 0:00:00
LAMMPS (2 Aug 2023 - Development - aff10deeb7-modified)
Total wall time: 0:00:00
LAMMPS (2 Aug 2023 - Development - aff10deeb7-modified)
Total wall time: 0:00:00
LAMMPS (2 Aug 2023 - Development - aff10deeb7-modified)
Total wall time: 0:00:00
LAMMPS (2 Aug 2023 - Development - aff10deeb7-modified)
Total wall time: 0:00:00
LAMMPS (2 Aug 2023 - Development - aff10deeb7-modified)
Total wall time: 0:00:00
LAMMPS (2 Aug 2023 - Development - aff10deeb7-modified)
Total wall time: 0:00:00
LAMMPS (2 Aug 2023 - Development - aff10deeb7-modified)
Total wall time: 0:00:00
LAMMPS (2 Aug 2023 - Development - aff10deeb7-modified)
Total wall time: 0:00:00
LAMMPS (2 Aug 2023 - Development - aff10deeb7-modified)
Total wall time: 0:00:00
LAMMPS (2 Aug 2023 - Development - aff10deeb7-modified)
Total wall time: 0:00:00
LAMMPS (2 Aug 2023 - Development - aff10deeb7-modified)
Total wall time: 0:00:00
LAMMPS (2 Aug 2023 - Development - aff10deeb7-modified)
Total wall time: 0:00:00
LAMMPS (2 Aug 2023 - Development - aff10deeb7-modified)
Total wall time: 0:00:00
LAMMPS (2 Aug 2023 - Development - aff10deeb7-modified)
Total wall time: 0:00:00
LAMMPS (2 Aug 2023 - Development - aff10deeb7-modified)
Total wall time: 0:00:00
LAMMPS (2 Aug 2023 - Development - aff10deeb7-modified)
Total wall time: 0:00:00
LAMMPS (2 Aug 2023 - Development - aff10deeb7-modified)
Total wall time: 0:00:00
LAMMPS (2 Aug 2023 - Development - aff10deeb7-modified)
Total wall time: 0:00:00
LAMMPS (2 Aug 2023 - Development - aff10deeb7-modified)
Total wall time: 0:00:00
LAMMPS (2 Aug 2023 - Development - aff10deeb7-modified)
Total wall time: 0:00:00
LAMMPS (2 Aug 2023 - Development - aff10deeb7-modified)
Total wall time: 0:00:00
LAMMPS (2 Aug 2023 - Development - aff10deeb7-modified)
Total wall time: 0:00:00
LAMMPS (2 Aug 2023 - Development - aff10deeb7-modified)
Total wall time: 0:00:00
LAMMPS (2 Aug 2023 - Development - aff10deeb7-modified)
Total wall time: 0:00:00
LAMMPS (2 Aug 2023 - Development - aff10deeb7-modified)
Total wall time: 0:00:00
LAMMPS (2 Aug 2023 - Development - aff10deeb7-modified)
Total wall time: 0:00:00
LAMMPS (2 Aug 2023 - Development - aff10deeb7-modified)
Total wall time: 0:00:00
LAMMPS (2 Aug 2023 - Development - aff10deeb7-modified)
Total wall time: 0:00:00
LAMMPS (2 Aug 2023 - Development - aff10deeb7-modified)
Total wall time: 0:00:00
LAMMPS (2 Aug 2023 - Development - aff10deeb7-modified)
Total wall time: 0:00:00
LAMMPS (2 Aug 2023 - Development - aff10deeb7-modified)
Total wall time: 0:00:00
LAMMPS (2 Aug 2023 - Development - aff10deeb7-modified)
Total wall time: 0:00:00
LAMMPS (2 Aug 2023 - Development - aff10deeb7-modified)
Total wall time: 0:00:00
LAMMPS (2 Aug 2023 - Development - aff10deeb7-modified)
Total wall time: 0:00:00
LAMMPS (2 Aug 2023 - Development - aff10deeb7-modified)
Total wall time: 0:00:00
LAMMPS (2 Aug 2023 - Development - aff10deeb7-modified)
Total wall time: 0:00:00
LAMMPS (2 Aug 2023 - Development - aff10deeb7-modified)
Total wall time: 0:00:00
LAMMPS (2 Aug 2023 - Development - aff10deeb7-modified)
Total wall time: 0:00:00
LAMMPS (2 Aug 2023 - Development - aff10deeb7-modified)
Total wall time: 0:00:00
LAMMPS (2 Aug 2023 - Development - aff10deeb7-modified)
Total wall time: 0:00:00
LAMMPS (2 Aug 2023 - Development - aff10deeb7-modified)
Total wall time: 0:00:00
LAMMPS (2 Aug 2023 - Development - aff10deeb7-modified)
Total wall time: 0:00:00
LAMMPS (2 Aug 2023 - Development - aff10deeb7-modified)
Total wall time: 0:00:00
LAMMPS (2 Aug 2023 - Development - aff10deeb7-modified)
Total wall time: 0:00:00
LAMMPS (2 Aug 2023 - Development - aff10deeb7-modified)
Total wall time: 0:00:00
LAMMPS (2 Aug 2023 - Development - aff10deeb7-modified)
Total wall time: 0:00:00
LAMMPS (2 Aug 2023 - Development - aff10deeb7-modified)
Total wall time: 0:00:00
LAMMPS (2 Aug 2023 - Development - aff10deeb7-modified)
Total wall time: 0:00:00
LAMMPS (2 Aug 2023 - Development - aff10deeb7-modified)
Total wall time: 0:00:00
LAMMPS (2 Aug 2023 - Development - aff10deeb7-modified)
Total wall time: 0:00:00
LAMMPS (2 Aug 2023 - Development - aff10deeb7-modified)
Total wall time: 0:00:00
LAMMPS (2 Aug 2023 - Development - aff10deeb7-modified)
Total wall time: 0:00:00
LAMMPS (2 Aug 2023 - Development - aff10deeb7-modified)
Total wall time: 0:00:00
LAMMPS (2 Aug 2023 - Development - aff10deeb7-modified)
Total wall time: 0:00:00
LAMMPS (2 Aug 2023 - Development - aff10deeb7-modified)
Total wall time: 0:00:00
LAMMPS (2 Aug 2023 - Development - aff10deeb7-modified)
Total wall time: 0:00:00
LAMMPS (2 Aug 2023 - Development - aff10deeb7-modified)
Total wall time: 0:00:00
LAMMPS (2 Aug 2023 - Development - aff10deeb7-modified)
Total wall time: 0:00:00
LAMMPS (2 Aug 2023 - Development - aff10deeb7-modified)
Total wall time: 0:00:00
LAMMPS (2 Aug 2023 - Development - aff10deeb7-modified)
Total wall time: 0:00:00
LAMMPS (2 Aug 2023 - Development - aff10deeb7-modified)
Total wall time: 0:00:00
LAMMPS (2 Aug 2023 - Development - aff10deeb7-modified)
Total wall time: 0:00:00
LAMMPS (2 Aug 2023 - Development - aff10deeb7-modified)
Total wall time: 0:00:00
LAMMPS (2 Aug 2023 - Development - aff10deeb7-modified)
Total wall time: 0:00:00
LAMMPS (2 Aug 2023 - Development - aff10deeb7-modified)
Total wall time: 0:00:00
LAMMPS (2 Aug 2023 - Development - aff10deeb7-modified)
Total wall time: 0:00:00
LAMMPS (2 Aug 2023 - Development - aff10deeb7-modified)
Total wall time: 0:00:00
LAMMPS (2 Aug 2023 - Development - aff10deeb7-modified)
Total wall time: 0:00:00
LAMMPS (2 Aug 2023 - Development - aff10deeb7-modified)
Total wall time: 0:00:00
LAMMPS (2 Aug 2023 - Development - aff10deeb7-modified)
Total wall time: 0:00:00
LAMMPS (2 Aug 2023 - Development - aff10deeb7-modified)
Total wall time: 0:00:00
LAMMPS (2 Aug 2023 - Development - aff10deeb7-modified)
Total wall time: 0:00:00
LAMMPS (2 Aug 2023 - Development - aff10deeb7-modified)
Total wall time: 0:00:00
LAMMPS (2 Aug 2023 - Development - aff10deeb7-modified)
Total wall time: 0:00:00
LAMMPS (2 Aug 2023 - Development - aff10deeb7-modified)
Total wall time: 0:00:00
LAMMPS (2 Aug 2023 - Development - aff10deeb7-modified)
Total wall time: 0:00:00
LAMMPS (2 Aug 2023 - Development - aff10deeb7-modified)
Total wall time: 0:00:00
LAMMPS (2 Aug 2023 - Development - aff10deeb7-modified)
Total wall time: 0:00:00
LAMMPS (2 Aug 2023 - Development - aff10deeb7-modified)
Total wall time: 0:00:00
LAMMPS (2 Aug 2023 - Development - aff10deeb7-modified)
Total wall time: 0:00:00
LAMMPS (2 Aug 2023 - Development - aff10deeb7-modified)
Total wall time: 0:00:00
LAMMPS (2 Aug 2023 - Development - aff10deeb7-modified)
Total wall time: 0:00:00
LAMMPS (2 Aug 2023 - Development - aff10deeb7-modified)
Total wall time: 0:00:00
LAMMPS (2 Aug 2023 - Development - aff10deeb7-modified)
Total wall time: 0:00:00
LAMMPS (2 Aug 2023 - Development - aff10deeb7-modified)
Total wall time: 0:00:00
LAMMPS (2 Aug 2023 - Development - aff10deeb7-modified)
Total wall time: 0:00:00
LAMMPS (2 Aug 2023 - Development - aff10deeb7-modified)
Total wall time: 0:00:00
LAMMPS (2 Aug 2023 - Development - aff10deeb7-modified)
Total wall time: 0:00:00
LAMMPS (2 Aug 2023 - Development - aff10deeb7-modified)
Total wall time: 0:00:00
LAMMPS (2 Aug 2023 - Development - aff10deeb7-modified)
Total wall time: 0:00:00
LAMMPS (2 Aug 2023 - Development - aff10deeb7-modified)
Total wall time: 0:00:00
LAMMPS (2 Aug 2023 - Development - aff10deeb7-modified)
Total wall time: 0:00:00
LAMMPS (2 Aug 2023 - Development - aff10deeb7-modified)
Total wall time: 0:00:00
LAMMPS (2 Aug 2023 - Development - aff10deeb7-modified)
Total wall time: 0:00:00
LAMMPS (2 Aug 2023 - Development - aff10deeb7-modified)
Total wall time: 0:00:00
LAMMPS (2 Aug 2023 - Development - aff10deeb7-modified)
Total wall time: 0:00:00
LAMMPS (2 Aug 2023 - Development - aff10deeb7-modified)
Total wall time: 0:00:00
LAMMPS (2 Aug 2023 - Development - aff10deeb7-modified)
Total wall time: 0:00:00
LAMMPS (2 Aug 2023 - Development - aff10deeb7-modified)
Total wall time: 0:00:00
LAMMPS (2 Aug 2023 - Development - aff10deeb7-modified)
Total wall time: 0:00:00
LAMMPS (2 Aug 2023 - Development - aff10deeb7-modified)
Total wall time: 0:00:00
LAMMPS (2 Aug 2023 - Development - aff10deeb7-modified)
Total wall time: 0:00:00
LAMMPS (2 Aug 2023 - Development - aff10deeb7-modified)
Total wall time: 0:00:00
LAMMPS (2 Aug 2023 - Development - aff10deeb7-modified)
Total wall time: 0:00:00
LAMMPS (2 Aug 2023 - Development - aff10deeb7-modified)
Total wall time: 0:00:00
LAMMPS (2 Aug 2023 - Development - aff10deeb7-modified)
Total wall time: 0:00:00
LAMMPS (2 Aug 2023 - Development - aff10deeb7-modified)
Total wall time: 0:00:00
LAMMPS (2 Aug 2023 - Development - aff10deeb7-modified)
Total wall time: 0:00:00
LAMMPS (2 Aug 2023 - Development - aff10deeb7-modified)
Total wall time: 0:00:00
LAMMPS (2 Aug 2023 - Development - aff10deeb7-modified)
Total wall time: 0:00:00
LAMMPS (2 Aug 2023 - Development - aff10deeb7-modified)
Total wall time: 0:00:00
LAMMPS (2 Aug 2023 - Development - aff10deeb7-modified)
Total wall time: 0:00:00
LAMMPS (2 Aug 2023 - Development - aff10deeb7-modified)
Total wall time: 0:00:00
LAMMPS (2 Aug 2023 - Development - aff10deeb7-modified)
Total wall time: 0:00:00
LAMMPS (2 Aug 2023 - Development - aff10deeb7-modified)
Total wall time: 0:00:00
LAMMPS (2 Aug 2023 - Development - aff10deeb7-modified)
Total wall time: 0:00:00
LAMMPS (2 Aug 2023 - Development - aff10deeb7-modified)
Total wall time: 0:00:00
LAMMPS (2 Aug 2023 - Development - aff10deeb7-modified)
Total wall time: 0:00:00
LAMMPS (2 Aug 2023 - Development - aff10deeb7-modified)
Total wall time: 0:00:00
LAMMPS (2 Aug 2023 - Development - aff10deeb7-modified)
Total wall time: 0:00:00
LAMMPS (2 Aug 2023 - Development - aff10deeb7-modified)
Total wall time: 0:00:00
LAMMPS (2 Aug 2023 - Development - aff10deeb7-modified)
Total wall time: 0:00:00
LAMMPS (2 Aug 2023 - Development - aff10deeb7-modified)
Total wall time: 0:00:00
LAMMPS (2 Aug 2023 - Development - aff10deeb7-modified)
Total wall time: 0:00:00
LAMMPS (2 Aug 2023 - Development - aff10deeb7-modified)
Total wall time: 0:00:00
LAMMPS (2 Aug 2023 - Development - aff10deeb7-modified)
Total wall time: 0:00:00
LAMMPS (2 Aug 2023 - Development - aff10deeb7-modified)
Total wall time: 0:00:00
LAMMPS (2 Aug 2023 - Development - aff10deeb7-modified)
Total wall time: 0:00:00
LAMMPS (2 Aug 2023 - Development - aff10deeb7-modified)
Total wall time: 0:00:00
LAMMPS (2 Aug 2023 - Development - aff10deeb7-modified)
Total wall time: 0:00:00
LAMMPS (2 Aug 2023 - Development - aff10deeb7-modified)
Total wall time: 0:00:00
LAMMPS (2 Aug 2023 - Development - aff10deeb7-modified)
Total wall time: 0:00:00
LAMMPS (2 Aug 2023 - Development - aff10deeb7-modified)
Total wall time: 0:00:00
LAMMPS (2 Aug 2023 - Development - aff10deeb7-modified)
Total wall time: 0:00:00
LAMMPS (2 Aug 2023 - Development - aff10deeb7-modified)
Total wall time: 0:00:00
LAMMPS (2 Aug 2023 - Development - aff10deeb7-modified)
Total wall time: 0:00:00
LAMMPS (2 Aug 2023 - Development - aff10deeb7-modified)
Total wall time: 0:00:00
LAMMPS (2 Aug 2023 - Development - aff10deeb7-modified)
Total wall time: 0:00:00
LAMMPS (2 Aug 2023 - Development - aff10deeb7-modified)
Total wall time: 0:00:00
LAMMPS (2 Aug 2023 - Development - aff10deeb7-modified)
Total wall time: 0:00:00
LAMMPS (2 Aug 2023 - Development - aff10deeb7-modified)
Total wall time: 0:00:00
LAMMPS (2 Aug 2023 - Development - aff10deeb7-modified)
Total wall time: 0:00:00
LAMMPS (2 Aug 2023 - Development - aff10deeb7-modified)
Total wall time: 0:00:00
LAMMPS (2 Aug 2023 - Development - aff10deeb7-modified)
Total wall time: 0:00:00
LAMMPS (2 Aug 2023 - Development - aff10deeb7-modified)
Total wall time: 0:00:00
LAMMPS (2 Aug 2023 - Development - aff10deeb7-modified)
Total wall time: 0:00:00
LAMMPS (2 Aug 2023 - Development - aff10deeb7-modified)
Total wall time: 0:00:00
LAMMPS (2 Aug 2023 - Development - aff10deeb7-modified)
Total wall time: 0:00:00
LAMMPS (2 Aug 2023 - Development - aff10deeb7-modified)
Total wall time: 0:00:00
LAMMPS (2 Aug 2023 - Development - aff10deeb7-modified)
Total wall time: 0:00:00
LAMMPS (2 Aug 2023 - Development - aff10deeb7-modified)
Total wall time: 0:00:00
LAMMPS (2 Aug 2023 - Development - aff10deeb7-modified)
Total wall time: 0:00:00
LAMMPS (2 Aug 2023 - Development - aff10deeb7-modified)
Total wall time: 0:00:00
LAMMPS (2 Aug 2023 - Development - aff10deeb7-modified)
Total wall time: 0:00:00
LAMMPS (2 Aug 2023 - Development - aff10deeb7-modified)
Total wall time: 0:00:00
LAMMPS (2 Aug 2023 - Development - aff10deeb7-modified)
Total wall time: 0:00:00
LAMMPS (2 Aug 2023 - Development - aff10deeb7-modified)
Total wall time: 0:00:00
LAMMPS (2 Aug 2023 - Development - aff10deeb7-modified)
Total wall time: 0:00:00
LAMMPS (2 Aug 2023 - Development - aff10deeb7-modified)
Total wall time: 0:00:00
LAMMPS (2 Aug 2023 - Development - aff10deeb7-modified)
Total wall time: 0:00:00
LAMMPS (2 Aug 2023 - Development - aff10deeb7-modified)
Total wall time: 0:00:00
LAMMPS (2 Aug 2023 - Development - aff10deeb7-modified)
Total wall time: 0:00:00
LAMMPS (2 Aug 2023 - Development - aff10deeb7-modified)
Total wall time: 0:00:00
LAMMPS (2 Aug 2023 - Development - aff10deeb7-modified)
Total wall time: 0:00:00
LAMMPS (2 Aug 2023 - Development - aff10deeb7-modified)
Total wall time: 0:00:00
LAMMPS (2 Aug 2023 - Development - aff10deeb7-modified)
Total wall time: 0:00:00
LAMMPS (2 Aug 2023 - Development - aff10deeb7-modified)
Total wall time: 0:00:00
LAMMPS (2 Aug 2023 - Development - aff10deeb7-modified)
Total wall time: 0:00:00
LAMMPS (2 Aug 2023 - Development - aff10deeb7-modified)
Total wall time: 0:00:00
LAMMPS (2 Aug 2023 - Development - aff10deeb7-modified)
Total wall time: 0:00:00
LAMMPS (2 Aug 2023 - Development - aff10deeb7-modified)
Total wall time: 0:00:00
LAMMPS (2 Aug 2023 - Development - aff10deeb7-modified)
Total wall time: 0:00:00
LAMMPS (2 Aug 2023 - Development - aff10deeb7-modified)
Total wall time: 0:00:00
LAMMPS (2 Aug 2023 - Development - aff10deeb7-modified)
Total wall time: 0:00:00
LAMMPS (2 Aug 2023 - Development - aff10deeb7-modified)
Total wall time: 0:00:00
LAMMPS (2 Aug 2023 - Development - aff10deeb7-modified)
Total wall time: 0:00:00
LAMMPS (2 Aug 2023 - Development - aff10deeb7-modified)
Total wall time: 0:00:00
LAMMPS (2 Aug 2023 - Development - aff10deeb7-modified)
Total wall time: 0:00:00
LAMMPS (2 Aug 2023 - Development - aff10deeb7-modified)
Total wall time: 0:00:00
LAMMPS (2 Aug 2023 - Development - aff10deeb7-modified)
Total wall time: 0:00:00
LAMMPS (2 Aug 2023 - Development - aff10deeb7-modified)
Total wall time: 0:00:00
LAMMPS (2 Aug 2023 - Development - aff10deeb7-modified)
Total wall time: 0:00:00
LAMMPS (2 Aug 2023 - Development - aff10deeb7-modified)
Total wall time: 0:00:00
LAMMPS (2 Aug 2023 - Development - aff10deeb7-modified)
Total wall time: 0:00:00
LAMMPS (2 Aug 2023 - Development - aff10deeb7-modified)
Total wall time: 0:00:00
LAMMPS (2 Aug 2023 - Development - aff10deeb7-modified)
Total wall time: 0:00:00
LAMMPS (2 Aug 2023 - Development - aff10deeb7-modified)
Total wall time: 0:00:00
LAMMPS (2 Aug 2023 - Development - aff10deeb7-modified)
Total wall time: 0:00:00
LAMMPS (2 Aug 2023 - Development - aff10deeb7-modified)
Total wall time: 0:00:00
LAMMPS (2 Aug 2023 - Development - aff10deeb7-modified)
Total wall time: 0:00:00
LAMMPS (2 Aug 2023 - Development - aff10deeb7-modified)
Total wall time: 0:00:00
LAMMPS (2 Aug 2023 - Development - aff10deeb7-modified)
Total wall time: 0:00:00
LAMMPS (2 Aug 2023 - Development - aff10deeb7-modified)
Total wall time: 0:00:00
LAMMPS (2 Aug 2023 - Development - aff10deeb7-modified)
Total wall time: 0:00:00
LAMMPS (2 Aug 2023 - Development - aff10deeb7-modified)
Total wall time: 0:00:00
LAMMPS (2 Aug 2023 - Development - aff10deeb7-modified)
Total wall time: 0:00:00
LAMMPS (2 Aug 2023 - Development - aff10deeb7-modified)
Total wall time: 0:00:00
LAMMPS (2 Aug 2023 - Development - aff10deeb7-modified)
Total wall time: 0:00:00
LAMMPS (2 Aug 2023 - Development - aff10deeb7-modified)
Total wall time: 0:00:00
LAMMPS (2 Aug 2023 - Development - aff10deeb7-modified)
Total wall time: 0:00:00
LAMMPS (2 Aug 2023 - Development - aff10deeb7-modified)
Total wall time: 0:00:00
LAMMPS (2 Aug 2023 - Development - aff10deeb7-modified)
Total wall time: 0:00:00
LAMMPS (2 Aug 2023 - Development - aff10deeb7-modified)
Total wall time: 0:00:00
LAMMPS (2 Aug 2023 - Development - aff10deeb7-modified)
Total wall time: 0:00:00
LAMMPS (2 Aug 2023 - Development - aff10deeb7-modified)
Total wall time: 0:00:00
LAMMPS (2 Aug 2023 - Development - aff10deeb7-modified)
Total wall time: 0:00:00
LAMMPS (2 Aug 2023 - Development - aff10deeb7-modified)
Total wall time: 0:00:00
LAMMPS (2 Aug 2023 - Development - aff10deeb7-modified)
Total wall time: 0:00:00
LAMMPS (2 Aug 2023 - Development - aff10deeb7-modified)
Total wall time: 0:00:00
LAMMPS (2 Aug 2023 - Development - aff10deeb7-modified)
Total wall time: 0:00:00
LAMMPS (2 Aug 2023 - Development - aff10deeb7-modified)
Total wall time: 0:00:00
LAMMPS (2 Aug 2023 - Development - aff10deeb7-modified)
Total wall time: 0:00:00
LAMMPS (2 Aug 2023 - Development - aff10deeb7-modified)
Total wall time: 0:00:00
LAMMPS (2 Aug 2023 - Development - aff10deeb7-modified)
Total wall time: 0:00:00
LAMMPS (2 Aug 2023 - Development - aff10deeb7-modified)
Total wall time: 0:00:00
LAMMPS (2 Aug 2023 - Development - aff10deeb7-modified)
Total wall time: 0:00:00
LAMMPS (2 Aug 2023 - Development - aff10deeb7-modified)
Total wall time: 0:00:00
LAMMPS (2 Aug 2023 - Development - aff10deeb7-modified)
Total wall time: 0:00:00
LAMMPS (2 Aug 2023 - Development - aff10deeb7-modified)
Total wall time: 0:00:00
LAMMPS (2 Aug 2023 - Development - aff10deeb7-modified)
Total wall time: 0:00:00
LAMMPS (2 Aug 2023 - Development - aff10deeb7-modified)
Total wall time: 0:00:00
LAMMPS (2 Aug 2023 - Development - aff10deeb7-modified)
Total wall time: 0:00:00
LAMMPS (2 Aug 2023 - Development - aff10deeb7-modified)
Total wall time: 0:00:00
LAMMPS (2 Aug 2023 - Development - aff10deeb7-modified)
Total wall time: 0:00:00
LAMMPS (2 Aug 2023 - Development - aff10deeb7-modified)
Total wall time: 0:00:00
LAMMPS (2 Aug 2023 - Development - aff10deeb7-modified)
Total wall time: 0:00:00
LAMMPS (2 Aug 2023 - Development - aff10deeb7-modified)
Total wall time: 0:00:00
LAMMPS (2 Aug 2023 - Development - aff10deeb7-modified)
Total wall time: 0:00:00
LAMMPS (2 Aug 2023 - Development - aff10deeb7-modified)
Total wall time: 0:00:00
LAMMPS (2 Aug 2023 - Development - aff10deeb7-modified)
Total wall time: 0:00:00
LAMMPS (2 Aug 2023 - Development - aff10deeb7-modified)
Total wall time: 0:00:00
LAMMPS (2 Aug 2023 - Development - aff10deeb7-modified)
Total wall time: 0:00:00
LAMMPS (2 Aug 2023 - Development - aff10deeb7-modified)
Total wall time: 0:00:00
LAMMPS (2 Aug 2023 - Development - aff10deeb7-modified)
Total wall time: 0:00:00
LAMMPS (2 Aug 2023 - Development - aff10deeb7-modified)
Total wall time: 0:00:00
LAMMPS (2 Aug 2023 - Development - aff10deeb7-modified)
Total wall time: 0:00:00
LAMMPS (2 Aug 2023 - Development - aff10deeb7-modified)
Total wall time: 0:00:00
LAMMPS (2 Aug 2023 - Development - aff10deeb7-modified)
Total wall time: 0:00:00
LAMMPS (2 Aug 2023 - Development - aff10deeb7-modified)
Total wall time: 0:00:00
LAMMPS (2 Aug 2023 - Development - aff10deeb7-modified)
Total wall time: 0:00:00
LAMMPS (2 Aug 2023 - Development - aff10deeb7-modified)
Total wall time: 0:00:00
LAMMPS (2 Aug 2023 - Development - aff10deeb7-modified)
Total wall time: 0:00:00
LAMMPS (2 Aug 2023 - Development - aff10deeb7-modified)
Total wall time: 0:00:00
LAMMPS (2 Aug 2023 - Development - aff10deeb7-modified)
Total wall time: 0:00:00
LAMMPS (2 Aug 2023 - Development - aff10deeb7-modified)
Total wall time: 0:00:00
LAMMPS (2 Aug 2023 - Development - aff10deeb7-modified)
Total wall time: 0:00:00
LAMMPS (2 Aug 2023 - Development - aff10deeb7-modified)
Total wall time: 0:00:00
LAMMPS (2 Aug 2023 - Development - aff10deeb7-modified)
Total wall time: 0:00:00
LAMMPS (2 Aug 2023 - Development - aff10deeb7-modified)
Total wall time: 0:00:00
LAMMPS (2 Aug 2023 - Development - aff10deeb7-modified)
Total wall time: 0:00:00
LAMMPS (2 Aug 2023 - Development - aff10deeb7-modified)
Total wall time: 0:00:00
LAMMPS (2 Aug 2023 - Development - aff10deeb7-modified)
Total wall time: 0:00:00
LAMMPS (2 Aug 2023 - Development - aff10deeb7-modified)
Total wall time: 0:00:00
LAMMPS (2 Aug 2023 - Development - aff10deeb7-modified)
Total wall time: 0:00:00
LAMMPS (2 Aug 2023 - Development - aff10deeb7-modified)
Total wall time: 0:00:00
LAMMPS (2 Aug 2023 - Development - aff10deeb7-modified)
Total wall time: 0:00:00
LAMMPS (2 Aug 2023 - Development - aff10deeb7-modified)
Total wall time: 0:00:00
LAMMPS (2 Aug 2023 - Development - aff10deeb7-modified)
Total wall time: 0:00:00
LAMMPS (2 Aug 2023 - Development - aff10deeb7-modified)
Total wall time: 0:00:00
LAMMPS (2 Aug 2023 - Development - aff10deeb7-modified)
Total wall time: 0:00:00
LAMMPS (2 Aug 2023 - Development - aff10deeb7-modified)
Total wall time: 0:00:00
LAMMPS (2 Aug 2023 - Development - aff10deeb7-modified)
Total wall time: 0:00:00
LAMMPS (2 Aug 2023 - Development - aff10deeb7-modified)
Total wall time: 0:00:00
LAMMPS (2 Aug 2023 - Development - aff10deeb7-modified)
Total wall time: 0:00:00
LAMMPS (2 Aug 2023 - Development - aff10deeb7-modified)
Total wall time: 0:00:00
LAMMPS (2 Aug 2023 - Development - aff10deeb7-modified)
Total wall time: 0:00:00
LAMMPS (2 Aug 2023 - Development - aff10deeb7-modified)
Total wall time: 0:00:00
LAMMPS (2 Aug 2023 - Development - aff10deeb7-modified)
Total wall time: 0:00:00
LAMMPS (2 Aug 2023 - Development - aff10deeb7-modified)
Total wall time: 0:00:00
LAMMPS (2 Aug 2023 - Development - aff10deeb7-modified)
Total wall time: 0:00:00
LAMMPS (2 Aug 2023 - Development - aff10deeb7-modified)
Total wall time: 0:00:00
LAMMPS (2 Aug 2023 - Development - aff10deeb7-modified)
Total wall time: 0:00:00
LAMMPS (2 Aug 2023 - Development - aff10deeb7-modified)
Total wall time: 0:00:00
LAMMPS (2 Aug 2023 - Development - aff10deeb7-modified)
Total wall time: 0:00:00
LAMMPS (2 Aug 2023 - Development - aff10deeb7-modified)
Total wall time: 0:00:00
LAMMPS (2 Aug 2023 - Development - aff10deeb7-modified)
Total wall time: 0:00:00
LAMMPS (2 Aug 2023 - Development - aff10deeb7-modified)
Total wall time: 0:00:00
LAMMPS (2 Aug 2023 - Development - aff10deeb7-modified)
Total wall time: 0:00:00
LAMMPS (2 Aug 2023 - Development - aff10deeb7-modified)
Total wall time: 0:00:00
LAMMPS (2 Aug 2023 - Development - aff10deeb7-modified)
Total wall time: 0:00:00
LAMMPS (2 Aug 2023 - Development - aff10deeb7-modified)
Total wall time: 0:00:00
LAMMPS (2 Aug 2023 - Development - aff10deeb7-modified)
Total wall time: 0:00:00
LAMMPS (2 Aug 2023 - Development - aff10deeb7-modified)
Total wall time: 0:00:00
LAMMPS (2 Aug 2023 - Development - aff10deeb7-modified)
Total wall time: 0:00:00
LAMMPS (2 Aug 2023 - Development - aff10deeb7-modified)
Total wall time: 0:00:00
LAMMPS (2 Aug 2023 - Development - aff10deeb7-modified)
Total wall time: 0:00:00
LAMMPS (2 Aug 2023 - Development - aff10deeb7-modified)
Total wall time: 0:00:00
LAMMPS (2 Aug 2023 - Development - aff10deeb7-modified)
Total wall time: 0:00:00
LAMMPS (2 Aug 2023 - Development - aff10deeb7-modified)
Total wall time: 0:00:00
LAMMPS (2 Aug 2023 - Development - aff10deeb7-modified)
Total wall time: 0:00:00
LAMMPS (2 Aug 2023 - Development - aff10deeb7-modified)
Total wall time: 0:00:00
LAMMPS (2 Aug 2023 - Development - aff10deeb7-modified)
Total wall time: 0:00:00
LAMMPS (2 Aug 2023 - Development - aff10deeb7-modified)
Total wall time: 0:00:00
LAMMPS (2 Aug 2023 - Development - aff10deeb7-modified)
Total wall time: 0:00:00
LAMMPS (2 Aug 2023 - Development - aff10deeb7-modified)
Total wall time: 0:00:00
LAMMPS (2 Aug 2023 - Development - aff10deeb7-modified)
Total wall time: 0:00:00
LAMMPS (2 Aug 2023 - Development - aff10deeb7-modified)
Total wall time: 0:00:00
LAMMPS (2 Aug 2023 - Development - aff10deeb7-modified)
Total wall time: 0:00:00
LAMMPS (2 Aug 2023 - Development - aff10deeb7-modified)
Total wall time: 0:00:00
LAMMPS (2 Aug 2023 - Development - aff10deeb7-modified)
Total wall time: 0:00:00
LAMMPS (2 Aug 2023 - Development - aff10deeb7-modified)
Total wall time: 0:00:00
LAMMPS (2 Aug 2023 - Development - aff10deeb7-modified)
Total wall time: 0:00:00
LAMMPS (2 Aug 2023 - Development - aff10deeb7-modified)
Total wall time: 0:00:00
LAMMPS (2 Aug 2023 - Development - aff10deeb7-modified)
Total wall time: 0:00:00
LAMMPS (2 Aug 2023 - Development - aff10deeb7-modified)
Total wall time: 0:00:00
LAMMPS (2 Aug 2023 - Development - aff10deeb7-modified)
Total wall time: 0:00:00
LAMMPS (2 Aug 2023 - Development - aff10deeb7-modified)
Total wall time: 0:00:00
LAMMPS (2 Aug 2023 - Development - aff10deeb7-modified)
Total wall time: 0:00:00
LAMMPS (2 Aug 2023 - Development - aff10deeb7-modified)
Total wall time: 0:00:00
LAMMPS (2 Aug 2023 - Development - aff10deeb7-modified)
Total wall time: 0:00:00
LAMMPS (2 Aug 2023 - Development - aff10deeb7-modified)
Total wall time: 0:00:00
LAMMPS (2 Aug 2023 - Development - aff10deeb7-modified)
Total wall time: 0:00:00
LAMMPS (2 Aug 2023 - Development - aff10deeb7-modified)
Total wall time: 0:00:00
LAMMPS (2 Aug 2023 - Development - aff10deeb7-modified)
Total wall time: 0:00:00
LAMMPS (2 Aug 2023 - Development - aff10deeb7-modified)
Total wall time: 0:00:00
LAMMPS (2 Aug 2023 - Development - aff10deeb7-modified)
Total wall time: 0:00:00
LAMMPS (2 Aug 2023 - Development - aff10deeb7-modified)
Total wall time: 0:00:00
LAMMPS (2 Aug 2023 - Development - aff10deeb7-modified)
Total wall time: 0:00:00
LAMMPS (2 Aug 2023 - Development - aff10deeb7-modified)
Total wall time: 0:00:00
LAMMPS (2 Aug 2023 - Development - aff10deeb7-modified)
Total wall time: 0:00:00
LAMMPS (2 Aug 2023 - Development - aff10deeb7-modified)
Total wall time: 0:00:00
LAMMPS (2 Aug 2023 - Development - aff10deeb7-modified)
Total wall time: 0:00:00
LAMMPS (2 Aug 2023 - Development - aff10deeb7-modified)
Total wall time: 0:00:00
LAMMPS (2 Aug 2023 - Development - aff10deeb7-modified)
Total wall time: 0:00:00
LAMMPS (2 Aug 2023 - Development - aff10deeb7-modified)
Total wall time: 0:00:00
LAMMPS (2 Aug 2023 - Development - aff10deeb7-modified)
Total wall time: 0:00:00
LAMMPS (2 Aug 2023 - Development - aff10deeb7-modified)
Total wall time: 0:00:00
LAMMPS (2 Aug 2023 - Development - aff10deeb7-modified)
Total wall time: 0:00:00
LAMMPS (2 Aug 2023 - Development - aff10deeb7-modified)
Total wall time: 0:00:00
LAMMPS (2 Aug 2023 - Development - aff10deeb7-modified)
Total wall time: 0:00:00
LAMMPS (2 Aug 2023 - Development - aff10deeb7-modified)
Total wall time: 0:00:00
LAMMPS (2 Aug 2023 - Development - aff10deeb7-modified)
Total wall time: 0:00:00
LAMMPS (2 Aug 2023 - Development - aff10deeb7-modified)
Total wall time: 0:00:00
LAMMPS (2 Aug 2023 - Development - aff10deeb7-modified)
Total wall time: 0:00:00
LAMMPS (2 Aug 2023 - Development - aff10deeb7-modified)
Total wall time: 0:00:00
LAMMPS (2 Aug 2023 - Development - aff10deeb7-modified)
Total wall time: 0:00:00
LAMMPS (2 Aug 2023 - Development - aff10deeb7-modified)
Total wall time: 0:00:00
LAMMPS (2 Aug 2023 - Development - aff10deeb7-modified)
Total wall time: 0:00:00
LAMMPS (2 Aug 2023 - Development - aff10deeb7-modified)
Total wall time: 0:00:00
LAMMPS (2 Aug 2023 - Development - aff10deeb7-modified)
Total wall time: 0:00:00
LAMMPS (2 Aug 2023 - Development - aff10deeb7-modified)
Total wall time: 0:00:00
LAMMPS (2 Aug 2023 - Development - aff10deeb7-modified)
Total wall time: 0:00:00
LAMMPS (2 Aug 2023 - Development - aff10deeb7-modified)
Total wall time: 0:00:00
LAMMPS (2 Aug 2023 - Development - aff10deeb7-modified)
Total wall time: 0:00:00
LAMMPS (2 Aug 2023 - Development - aff10deeb7-modified)
Total wall time: 0:00:00
LAMMPS (2 Aug 2023 - Development - aff10deeb7-modified)
Total wall time: 0:00:00
LAMMPS (2 Aug 2023 - Development - aff10deeb7-modified)
Total wall time: 0:00:00
LAMMPS (2 Aug 2023 - Development - aff10deeb7-modified)
Total wall time: 0:00:00
LAMMPS (2 Aug 2023 - Development - aff10deeb7-modified)
Total wall time: 0:00:00
LAMMPS (2 Aug 2023 - Development - aff10deeb7-modified)
Total wall time: 0:00:00
LAMMPS (2 Aug 2023 - Development - aff10deeb7-modified)
Total wall time: 0:00:00
LAMMPS (2 Aug 2023 - Development - aff10deeb7-modified)
Total wall time: 0:00:00
LAMMPS (2 Aug 2023 - Development - aff10deeb7-modified)
Total wall time: 0:00:00
LAMMPS (2 Aug 2023 - Development - aff10deeb7-modified)
Total wall time: 0:00:00
LAMMPS (2 Aug 2023 - Development - aff10deeb7-modified)
Total wall time: 0:00:00
LAMMPS (2 Aug 2023 - Development - aff10deeb7-modified)
Total wall time: 0:00:00
LAMMPS (2 Aug 2023 - Development - aff10deeb7-modified)
occs in initial pop 0 ['Mg', 'Mg', 'Mg', 'Mg', 'Mg', 'Mg', 'Ca', 'Ca', 'Mg', 'Ca', 'Mg', 'Mg', 'Mg', 'Ca', 'Mg', 'Mg']
occs in initial pop 1 ['Mg', 'Mg', 'Mg', 'Mg', 'Mg', 'Mg', 'Mg', 'Mg', 'Mg', 'Mg', 'Ca', 'Ca', 'Ca', 'Mg', 'Ca', 'Mg']
occs in initial pop 2 ['Mg', 'Ca', 'Ca', 'Mg', 'Mg', 'Mg', 'Mg', 'Mg', 'Mg', 'Ca', 'Mg', 'Mg', 'Mg', 'Ca', 'Mg', 'Mg']
occs in initial pop 3 ['Mg', 'Mg', 'Ca', 'Mg', 'Mg', 'Mg', 'Mg', 'Ca', 'Mg', 'Mg', 'Mg', 'Ca', 'Mg', 'Ca', 'Mg', 'Mg']
occs in initial pop 4 ['Ca', 'Mg', 'Mg', 'Mg', 'Mg', 'Mg', 'Mg', 'Mg', 'Mg', 'Ca', 'Mg', 'Mg', 'Ca', 'Mg', 'Ca', 'Mg']
occs in initial pop 5 ['Ca', 'Mg', 'Mg', 'Mg', 'Ca', 'Ca', 'Mg', 'Ca', 'Mg', 'Mg', 'Mg', 'Mg', 'Mg', 'Mg', 'Mg', 'Mg']
occs in initial pop 6 ['Mg', 'Mg', 'Mg', 'Ca', 'Mg', 'Mg', 'Mg', 'Mg', 'Mg', 'Ca', 'Mg', 'Ca', 'Ca', 'Mg', 'Mg', 'Mg']
occs in initial pop 7 ['Mg', 'Mg', 'Mg', 'Ca', 'Mg', 'Mg', 'Mg', 'Mg', 'Ca', 'Ca', 'Mg', 'Mg', 'Mg', 'Mg', 'Mg', 'Ca']
occs in initial pop 8 ['Mg', 'Mg', 'Ca', 'Mg', 'Ca', 'Mg', 'Mg', 'Mg', 'Mg', 'Mg', 'Mg', 'Mg', 'Mg', 'Ca', 'Ca', 'Mg']
occs in initial pop 9 ['Mg', 'Mg', 'Mg', 'Mg', 'Mg', 'Ca', 'Mg', 'Ca', 'Ca', 'Mg', 'Ca', 'Mg', 'Mg', 'Mg', 'Mg', 'Mg']
occs in initial pop 10 ['Mg', 'Mg', 'Mg', 'Mg', 'Ca', 'Ca', 'Mg', 'Mg', 'Mg', 'Mg', 'Ca', 'Mg', 'Mg', 'Mg', 'Mg', 'Ca']
occs in initial pop 11 ['Ca', 'Mg', 'Ca', 'Mg', 'Mg', 'Ca', 'Mg', 'Mg', 'Mg', 'Mg', 'Mg', 'Mg', 'Mg', 'Mg', 'Mg', 'Ca']
occs in initial pop 12 ['Ca', 'Mg', 'Mg', 'Ca', 'Mg', 'Ca', 'Mg', 'Mg', 'Mg', 'Mg', 'Mg', 'Ca', 'Mg', 'Mg', 'Mg', 'Mg']
occs in initial pop 13 ['Mg', 'Mg', 'Mg', 'Mg', 'Mg', 'Mg', 'Mg', 'Mg', 'Mg', 'Mg', 'Mg', 'Ca', 'Mg', 'Ca', 'Ca', 'Ca']
occs in initial pop 14 ['Ca', 'Mg', 'Mg', 'Mg', 'Mg', 'Mg', 'Mg', 'Ca', 'Ca', 'Mg', 'Mg', 'Ca', 'Mg', 'Mg', 'Mg', 'Mg']
occs in initial pop 15 ['Ca', 'Mg', 'Mg', 'Mg', 'Mg', 'Ca', 'Ca', 'Mg', 'Ca', 'Mg', 'Mg', 'Mg', 'Mg', 'Mg', 'Mg', 'Mg']
occs in initial pop 16 ['Mg', 'Mg', 'Mg', 'Mg', 'Mg', 'Mg', 'Mg', 'Mg', 'Ca', 'Mg', 'Mg', 'Mg', 'Ca', 'Ca', 'Ca', 'Mg']
occs in initial pop 17 ['Mg', 'Mg', 'Mg', 'Mg', 'Mg', 'Mg', 'Ca', 'Mg', 'Mg', 'Ca', 'Mg', 'Mg', 'Mg', 'Ca', 'Ca', 'Mg']
occs in initial pop 18 ['Mg', 'Ca', 'Mg', 'Mg', 'Ca', 'Mg', 'Mg', 'Mg', 'Mg', 'Mg', 'Ca', 'Mg', 'Ca', 'Mg', 'Mg', 'Mg']
occs in initial pop 19 ['Ca', 'Mg', 'Mg', 'Mg', 'Mg', 'Mg', 'Mg', 'Ca', 'Mg', 'Ca', 'Mg', 'Mg', 'Mg', 'Mg', 'Ca', 'Mg']
occs in initial pop 20 ['Mg', 'Mg', 'Ca', 'Mg', 'Mg', 'Mg', 'Mg', 'Ca', 'Mg', 'Mg', 'Ca', 'Mg', 'Mg', 'Ca', 'Mg', 'Mg']
occs in initial pop 21 ['Ca', 'Ca', 'Mg', 'Mg', 'Ca', 'Mg', 'Mg', 'Mg', 'Mg', 'Ca', 'Mg', 'Mg', 'Mg', 'Mg', 'Mg', 'Mg']
occs in initial pop 22 ['Ca', 'Mg', 'Mg', 'Mg', 'Ca', 'Mg', 'Ca', 'Mg', 'Mg', 'Mg', 'Mg', 'Mg', 'Ca', 'Mg', 'Mg', 'Mg']
occs in initial pop 23 ['Mg', 'Mg', 'Mg', 'Mg', 'Ca', 'Mg', 'Mg', 'Mg', 'Mg', 'Mg', 'Mg', 'Ca', 'Ca', 'Ca', 'Mg', 'Mg']
occs in initial pop 24 ['Mg', 'Mg', 'Mg', 'Mg', 'Mg', 'Ca', 'Ca', 'Mg', 'Mg', 'Ca', 'Mg', 'Mg', 'Mg', 'Mg', 'Ca', 'Mg']
occs in initial pop 25 ['Ca', 'Mg', 'Mg', 'Mg', 'Mg', 'Mg', 'Mg', 'Ca', 'Mg', 'Mg', 'Ca', 'Mg', 'Mg', 'Ca', 'Mg', 'Mg']
occs in initial pop 26 ['Ca', 'Mg', 'Mg', 'Mg', 'Mg', 'Mg', 'Mg', 'Mg', 'Mg', 'Mg', 'Ca', 'Ca', 'Mg', 'Mg', 'Mg', 'Ca']
occs in initial pop 27 ['Mg', 'Mg', 'Mg', 'Mg', 'Ca', 'Ca', 'Mg', 'Mg', 'Mg', 'Ca', 'Ca', 'Mg', 'Mg', 'Mg', 'Mg', 'Mg']
occs in initial pop 28 ['Mg', 'Mg', 'Mg', 'Mg', 'Mg', 'Ca', 'Mg', 'Ca', 'Mg', 'Mg', 'Mg', 'Ca', 'Ca', 'Mg', 'Mg', 'Mg']
occs in initial pop 29 ['Mg', 'Mg', 'Mg', 'Ca', 'Mg', 'Ca', 'Mg', 'Mg', 'Mg', 'Ca', 'Mg', 'Mg', 'Mg', 'Mg', 'Mg', 'Ca']
occs in initial pop 30 ['Mg', 'Mg', 'Mg', 'Ca', 'Mg', 'Mg', 'Mg', 'Mg', 'Mg', 'Ca', 'Ca', 'Mg', 'Mg', 'Ca', 'Mg', 'Mg']
occs in initial pop 31 ['Mg', 'Mg', 'Mg', 'Ca', 'Mg', 'Mg', 'Ca', 'Mg', 'Ca', 'Mg', 'Ca', 'Mg', 'Mg', 'Mg', 'Mg', 'Mg']
occs in initial pop 32 ['Ca', 'Mg', 'Ca', 'Ca', 'Mg', 'Mg', 'Mg', 'Mg', 'Mg', 'Mg', 'Mg', 'Ca', 'Mg', 'Mg', 'Mg', 'Mg']
occs in initial pop 33 ['Mg', 'Mg', 'Mg', 'Mg', 'Mg', 'Mg', 'Ca', 'Mg', 'Mg', 'Mg', 'Mg', 'Ca', 'Ca', 'Ca', 'Mg', 'Mg']
occs in initial pop 34 ['Mg', 'Mg', 'Mg', 'Mg', 'Mg', 'Mg', 'Mg', 'Mg', 'Ca', 'Ca', 'Mg', 'Mg', 'Mg', 'Mg', 'Ca', 'Ca']
occs in initial pop 35 ['Mg', 'Mg', 'Mg', 'Mg', 'Mg', 'Ca', 'Ca', 'Ca', 'Mg', 'Mg', 'Ca', 'Mg', 'Mg', 'Mg', 'Mg', 'Mg']
occs in initial pop 36 ['Ca', 'Mg', 'Mg', 'Mg', 'Mg', 'Mg', 'Mg', 'Mg', 'Mg', 'Mg', 'Mg', 'Ca', 'Ca', 'Mg', 'Mg', 'Ca']
occs in initial pop 37 ['Mg', 'Mg', 'Mg', 'Ca', 'Mg', 'Mg', 'Mg', 'Mg', 'Mg', 'Ca', 'Mg', 'Mg', 'Ca', 'Ca', 'Mg', 'Mg']
occs in initial pop 38 ['Mg', 'Ca', 'Mg', 'Mg', 'Mg', 'Ca', 'Mg', 'Ca', 'Mg', 'Mg', 'Mg', 'Mg', 'Mg', 'Ca', 'Mg', 'Mg']
occs in initial pop 39 ['Ca', 'Mg', 'Mg', 'Mg', 'Ca', 'Mg', 'Ca', 'Mg', 'Mg', 'Mg', 'Mg', 'Mg', 'Ca', 'Mg', 'Mg', 'Mg']
occs in initial pop 40 ['Mg', 'Mg', 'Ca', 'Mg', 'Mg', 'Ca', 'Ca', 'Mg', 'Mg', 'Mg', 'Mg', 'Ca', 'Mg', 'Mg', 'Mg', 'Mg']
occs in initial pop 41 ['Mg', 'Mg', 'Mg', 'Mg', 'Ca', 'Mg', 'Mg', 'Mg', 'Ca', 'Mg', 'Mg', 'Mg', 'Ca', 'Ca', 'Mg', 'Mg']
occs in initial pop 42 ['Mg', 'Mg', 'Mg', 'Ca', 'Mg', 'Mg', 'Mg', 'Mg', 'Mg', 'Ca', 'Mg', 'Mg', 'Mg', 'Ca', 'Mg', 'Ca']
occs in initial pop 43 ['Ca', 'Ca', 'Mg', 'Mg', 'Mg', 'Mg', 'Mg', 'Mg', 'Mg', 'Ca', 'Mg', 'Mg', 'Ca', 'Mg', 'Mg', 'Mg']
occs in initial pop 44 ['Mg', 'Ca', 'Mg', 'Mg', 'Mg', 'Mg', 'Mg', 'Mg', 'Mg', 'Mg', 'Mg', 'Mg', 'Ca', 'Ca', 'Mg', 'Ca']
occs in initial pop 45 ['Mg', 'Ca', 'Mg', 'Ca', 'Mg', 'Mg', 'Mg', 'Mg', 'Mg', 'Ca', 'Mg', 'Mg', 'Mg', 'Mg', 'Ca', 'Mg']
occs in initial pop 46 ['Mg', 'Mg', 'Mg', 'Mg', 'Ca', 'Mg', 'Mg', 'Ca', 'Ca', 'Mg', 'Mg', 'Mg', 'Ca', 'Mg', 'Mg', 'Mg']
occs in initial pop 47 ['Mg', 'Ca', 'Mg', 'Mg', 'Mg', 'Mg', 'Mg', 'Ca', 'Mg', 'Mg', 'Ca', 'Mg', 'Mg', 'Ca', 'Mg', 'Mg']
occs in initial pop 48 ['Mg', 'Mg', 'Ca', 'Mg', 'Mg', 'Ca', 'Mg', 'Ca', 'Mg', 'Mg', 'Mg', 'Mg', 'Ca', 'Mg', 'Mg', 'Mg']
occs in initial pop 49 ['Mg', 'Mg', 'Mg', 'Mg', 'Mg', 'Ca', 'Ca', 'Ca', 'Mg', 'Ca', 'Mg', 'Mg', 'Mg', 'Mg', 'Mg', 'Mg']
igen 0 best score 495.38707600418934
igen 1 best score 484.8840980511616
igen 2 best score 484.8840980511616
igen 3 best score 481.72782470827894
igen 4 best score 473.77603705246736
igen 5 best score 473.77603705246736
igen 6 best score 473.77603705246736
igen 7 best score 473.77603705246736
igen 8 best score 473.77603705246736
igen 9 best score 475.1027963507255
igen 10 best score 475.1027963507255
igen 11 best score 475.1027963507255
igen 12 best score 475.1027963507255
igen 13 best score 475.1027963507255
igen 14 best score 475.1027963507255
igen 15 best score 474.1065521564816
igen 16 best score 473.4588830749004
igen 17 best score 473.4588830749004
igen 18 best score 473.4588830749004
igen 19 best score 474.1065521564816
igen 20 best score 473.4588830749004
[999.999, 495.38707600418934, 484.8840980511616, 484.8840980511616, 481.72782470827894, 473.77603705246736, 473.77603705246736, 473.77603705246736, 473.77603705246736, 473.77603705246736, 475.1027963507255, 475.1027963507255, 475.1027963507255, 475.1027963507255, 475.1027963507255, 475.1027963507255, 474.1065521564816, 473.4588830749004, 473.4588830749004, 473.4588830749004, 474.1065521564816, 473.4588830749004]
['i_0_gen_0', 'i_18_gen_0', 'i_6_gen_1', 'i_16_gen_2', 'i_49_gen_3', 'i_40_gen_4', 'i_8_gen_5', 'i_15_gen_6', 'i_16_gen_7', 'i_2_gen_8', 'i_40_gen_9', 'i_13_gen_10', 'i_10_gen_11', 'i_1_gen_12', 'i_12_gen_13', 'i_28_gen_14', 'i_46_gen_15', 'i_47_gen_16', 'i_25_gen_17', 'i_32_gen_18', 'i_48_gen_19', 'i_31_gen_20']
Total wall time: 0:00:00
