LAMMPS data file via write_data, version 7 Feb 2024, timestep = 456, units = metal

5 atoms
2 atom types

0 2.508093662109755 xlo xhi
0 2.508093662109755 ylo yhi
0 12.540468310548775 zlo zhi
0 2.508093662109755 5.01618732421951 xy xz yz

Masses

1 183.84
2 9.012183

Atoms # atomic

2 2 2.184408484887678 2.3356837676621134 2.0547445000985216 0 0 0
3 2 0.8359502010596576 0.9075929648173552 0.01056463888595306 0 0 0
4 2 3.3880711593083417 3.398572386480616 6.195206609952282 1 1 0
1 2 2.1336998648047802 4.652496416031018 8.074268738914332 1 0 0
5 1 3.3864163650649295 4.669949986047956 10.313064490732948 1 1 0

Velocities

2 0.47271213107181953 0.22508353721962007 1.080414062557349
3 -0.9790563244840829 0.2778232523148808 -0.25079180356678615
4 1.4365113000642291 -0.1519274658410551 -0.6013424438823846
1 0.976555749173416 -0.1461025342453191 0.7360440794660827
5 -0.7138220563246541 -0.07349051223317685 -0.3937715134697313
