LAMMPS data file via write_data, version 7 Feb 2024, timestep = 504, units = metal

3 atoms
1 atom types

0 2.508093662109755 xlo xhi
0 2.508093662109755 ylo yhi
0 7.5242809863292655 zlo zhi
0 2.508093662109755 0 xy xz yz

Masses

1 183.84

Atoms # atomic

1 1 3.0374381394827843 1.5588763307840205 4.196246901797308 0 0 0
2 1 3.0379931135851392 1.5471154620189693 4.196229408944589 1 1 0
3 1 2.3184829921426258 0.6099835729268036 4.196189171210758 1 1 0

Velocities

1 0.05431799393885885 -0.5421572609865459 0.9658388167118622
2 -0.019199990266944463 0.878771785373947 -0.9700665146063084
3 -0.035118003671934975 -0.3366145243874001 0.004227697894446719
