LAMMPS data file via write_data, version 7 Feb 2024, timestep = 127, units = metal

4 atoms
2 atom types

0 2.508093662109755 xlo xhi
0 5.01618732421951 ylo yhi
0 5.01618732421951 zlo zhi
0 0 2.508093662109755 xy xz yz

Masses

1 183.84
2 9.012183

Atoms # atomic

1 2 0.9385535623980601 6.181609103443884 2.7667155889516253 0 -1 0
2 2 2.191850555994291 3.945054353822984 2.5007493660913123 0 0 0
3 2 0.9368168840116723 4.472314972866856 4.6673899353575115 0 0 0
4 1 2.191853522316102 6.703728318553621 4.953101659412727 0 0 -1

Velocities

1 0.3679577932138432 -0.7979681643616782 0.0012128242594033126
2 -0.28186156844133486 -0.39115659661884505 -0.262406305116801
3 -0.5985187358488527 0.5437123301890823 0.5158306359267673
4 0.1831649180396191 0.21342851316740927 -0.07348786981705543
