LAMMPS data file via write_data, version 7 Feb 2024, timestep = 90, units = metal

3 atoms
2 atom types

0 2.508093662109755 xlo xhi
0 2.508093662109755 ylo yhi
0 7.5242809863292655 zlo zhi
0 0 2.508093662109755 xy xz yz

Masses

1 183.84
2 9.012183

Atoms # atomic

1 2 1.5536250486841974 0.5453702159829215 0.4879577637929561 0 1 0
2 1 1.59237876385309 3.0158176070221003 6.337792762957772 1 1 0
3 1 0.3016184796767381 4.305520880390793 6.335947432734427 1 0 0

Velocities

1 2.0000481822110645 -1.9213457290592526 -1.0990220431125888
2 -1.887348506529639 1.8300631353294412 -0.05807881716009391
3 1.529204933066599 -1.4860233514596726 0.20960096529153627
