LAMMPS data file via write_data, version 7 Feb 2024, timestep = 170, units = metal

7 atoms
1 atom types

0 2.508093662109755 xlo xhi
0 2.508093662109755 ylo yhi
0 17.556655634768287 zlo zhi
0 10.03237464843902 0 xy xz yz

Masses

1 9.012183

Atoms # atomic

4 1 2.0795931002244843 1.9616878106828077 0.9960532406462301 0 0 0
7 1 2.496104999080885 2.2875483197519797 2.5713097028634433 0 0 0
1 1 7.52948619428171 0.5129596086477245 10.571225484979777 1 1 0
2 1 6.122643336740382 1.5660231585045123 10.556827194945352 1 0 0
3 1 7.564105531093042 1.8654146923052437 10.561991125842686 0 0 0
5 1 6.050500361552143 0.3063708027424314 10.571256525917462 1 1 0
6 1 7.993639141922273 0.1404731933806931 12.020380920322829 1 1 0

Velocities

4 0.0024039298276945873 0.0023276132142189716 0.0013261599059227447
7 -0.0024039298276945877 -0.002327613214218971 -0.0013261599059227445
1 0.07636021533367045 -0.2070153972072745 0.011123250307004093
2 -0.04842211405757639 0.07911324983429184 -0.03366267678051368
3 -0.012780664167934382 -0.14616233102168832 0.082873262860174
5 -0.059961986707577235 0.17839897934973997 0.06923838637837888
6 0.04480454959942072 0.09566549904495356 -0.12957222276504404
