LAMMPS data file via write_data, version 7 Feb 2024, timestep = 111, units = metal

4 atoms
1 atom types

0 2.508093662109755 xlo xhi
0 5.01618732421951 ylo yhi
0 5.01618732421951 zlo zhi

Masses

1 9.012183

Atoms # atomic

1 1 0.03521017981061858 1.7780938089466378 1.8385600357966705 1 0 0
2 1 1.2905988710744967 1.7810366103520026 2.6379842568081275 0 0 0
3 1 1.2904933393547469 1.7736945775042225 1.0781920941533203 1 0 0
4 1 1.2975231287871618 1.7843862398320913 3.6554029419535214 0 0 0

Velocities

1 0.32516346718817635 -0.08049153691106671 -0.9287420620473421
2 -0.24591555378369195 0.24422704057139838 1.037262617896627
3 -0.25593981575548497 1.6890342385253576 1.0476356238469096
4 0.17669190235100596 -1.8527697421856895 -1.1561561796960647
