LAMMPS data file via write_data, version 7 Feb 2024, timestep = 88, units = metal

3 atoms
2 atom types

0 2.508093662109755 xlo xhi
0 2.508093662109755 ylo yhi
0 7.5242809863292655 zlo zhi

Masses

1 183.84
2 9.012183

Atoms # atomic

1 2 2.1012938605126537 0.14264572709731232 7.027502750306502 0 0 -1
2 2 0.84735111195173 1.3706409294457353 1.345803198612273 0 0 0
3 1 2.1017416118055303 0.13176797525534978 3.1311850447958967 0 1 0

Velocities

1 0.014432941909955801 0.0688338682230512 0.08257381488164392
2 0.03369422596737505 0.03014869313944467 0.1988894690862381
3 -0.01016961519138872 -0.020956455730191722 -0.059018206790524386
