LAMMPS data file via write_data, version 7 Feb 2024, timestep = 229, units = metal

9 atoms
2 atom types

0 2.508093662109755 xlo xhi
0 2.508093662109755 ylo yhi
0 22.572842958987795 zlo zhi
0 15.048561972658533 7.5242809863292655 xy xz yz

Masses

1 183.84
2 9.012183

Atoms # atomic

1 2 3.731968992190878 3.3142701471111797 4.858764572330105 0 0 0
7 1 15.213189091937624 9.657564663542734 22.122992049144152 1 0 -1
8 1 2.0992425829437225 2.9876755310138585 1.9062070825479895 0 0 0
9 1 4.985646747609271 3.247861449496421 7.109111687445375 1 0 0
3 2 10.664461389558149 6.610999430905828 13.295091788831774 0 1 0
5 1 9.41091764939014 5.359999650986495 11.434680902300332 0 0 0
6 1 11.91787244416321 5.359893370584107 15.160943056520125 0 1 0
2 2 13.169576865188064 8.030912339637283 17.414939246291123 1 0 0
4 2 13.960431504802356 6.728296908596559 19.915421696544573 0 1 0

Velocities

1 -0.03977591463008273 1.0284650841942238 -0.4045012376726855
7 0.30223558331896705 -0.22487015950413555 -0.2295001025552798
8 -0.21157358623978484 0.45513509548630726 -0.6252245195738665
9 -0.02274459958597008 -0.19232917665862384 -0.42453458810269834
3 -0.04280436922950862 -0.00296289346814961 -1.6122965302784453
5 -0.04534797708508028 -0.002763193906534629 0.7157788477139271
6 -0.050267190475608486 -0.0023240980263622172 0.711574310688005
2 -0.032838688213986264 -0.010602255637823675 0.4580378407572916
4 0.23134897123038906 -1.1555049565032722 -0.01537928604052783
