LAMMPS data file via write_data, version 7 Feb 2024, timestep = 89, units = metal

3 atoms
1 atom types

0 2.508093662109755 xlo xhi
0 2.508093662109755 ylo yhi
0 7.5242809863292655 zlo zhi
0 2.508093662109755 0 xy xz yz

Masses

1 9.012183

Atoms # atomic

1 1 3.326213662774106 1.1740146718926836 6.801201914031818 1 0 0
2 1 1.3314770556771685 1.7720447503427084 0.7223331395628784 0 0 0
3 1 4.236580540169088 2.19177601417112 6.806156405655306 1 0 0

Velocities

1 5.163426925666702 3.4255417438150966 8.094106856131953
2 1.5256833825602532 -2.2070114697124144 -5.798389910777136
3 -6.689110308226974 -1.2185302741028188 -2.295716945354801
