LAMMPS data file via write_data, version 7 Feb 2024, timestep = 87, units = metal

2 atoms
2 atom types

0 2.508093662109755 xlo xhi
0 5.01618732421951 ylo yhi
0 2.508093662109755 zlo zhi

Masses

1 183.84
2 9.012183

Atoms # atomic

1 2 2.1397332985794697 2.49579084284122 0.3719666545813002 -1 0 0
2 1 0.8831321818455722 4.325942452563596 1.6132804192331855 0 0 0

Velocities

1 -0.6323454946090106 0.1885988455858048 0.14350085878620703
2 0.14691970468706905 -0.04285483995170319 -0.03335854707030072
