gsqs_3.data (written by ASE) 

9 	 atoms 
1  atom types
0.0      6.8575699999999999  xlo xhi
0.0      6.8575781414492427  ylo yhi
0.0                 2.28586  zlo zhi
     2.2858528877243058                       0                       0  xy xz yz


Atoms 

     1   1      1.3403113805983693      1.2265464263796115      1.8578555736000004
     2   1      1.7159453370214868      2.8046123082899115      1.8576041290000003
     3   1     0.76804665065347077      2.1582855684583202     0.71677712020000006
     4   1      6.5750601625853209      1.4734878152531987            1.7750617244
     5   1      7.9172910925412889      3.7348427831775006     0.71158821800000005
     6   1      7.1115032462477208      4.6652789854093344            1.7961602122
     7   1      1.8857835178671571      4.5639239804787142            1.8387915012
     8   1      7.0178983021742321      3.0566968807695858             1.849603619
     9   1      2.3552999931987975      1.8128693574735217     0.71337118880000006
