gsqs_1.data (written by ASE) 

9 	 atoms 
1  atom types
0.0      6.8575699999999999  xlo xhi
0.0      6.8575781414492427  ylo yhi
0.0                 2.28586  zlo zhi
     2.2858528877243058                       0                       0  xy xz yz


Atoms 

     1   1      5.3418167294492909      3.1119689605896661      1.1966705686000001
     2   1      3.9314891379877945      2.6496996180745729     0.55013792620000002
     3   1      3.9091100073225462      3.7274365987847355            1.6905306216
     4   1      3.8678496653708887       4.869086207773206     0.55089226000000002
     5   1      2.7931325315919873      2.6250123367653559            1.6795127764
     6   1      1.3664148172669841      3.1255469653097361            1.0944240508
     7   1      2.6955252603492155      4.7873438763271308      1.6928393401999999
     8   1      3.9634231566241209      1.5590703904584853      1.6556483980000001
     9   1      2.7685818368288797      3.7032293479454195     0.55326955440000003
