gsqs_9.data (written by ASE) 

9 	 atoms 
1  atom types
0.0      6.8575699999999999  xlo xhi
0.0      6.8575781414492427  ylo yhi
0.0                 2.28586  zlo zhi
     2.2858528877243058                       0                       0  xy xz yz


Atoms 

     1   1      3.5671445673028077      6.0551043473368527     0.48341367280000008
     2   1      3.7154085245045478    0.077902087686863394            1.6068910042
     3   1      9.1066435069384113      6.7614348959061239      2.1407536072000002
     4   1      1.4354721033732378     0.30152771087952329      1.6215205081999999
     5   1      3.3880940561538524      4.8908933062630142      1.6284923812000001
     6   1      5.8451151940627284      5.7546052731785462            0.4681669866
     7   1      4.6836942021097441      5.8964885649251313             1.617588829
     8   1      1.6231174379318041      1.4614870535056625     0.46553824760000001
     9   1      2.5492101258641862      0.1585472066303065     0.46322952899999997
