gsqs_6.data (written by ASE) 

8 	 atoms 
1  atom types
0.0                 4.57172  xlo xhi
0.0      4.5717105863464074  ylo yhi
0.0      4.5717105863464056  zlo zhi
    -2.2858598372629642     -2.2858598372629642  1.0782957612386224e-07  xy xz yz


Atoms 

     1   1      2.6160982379127953    0.088051172780336612      1.1399560347054762
     2   1      3.8759043361292256      2.0295652294303985      1.3451801229265663
     3   1       4.102456091705637       3.956769894938156      4.2211518185853629
     4   1      5.1635978862472482      3.0520283020150147      1.3429857018451201
     5   1      3.3393671998602197      1.1194290563013372    0.090245566974478067
     6   1      4.3945432044016242      3.1943914037889631      2.7893834971533966
     7   1      4.8255192740063366      2.4825303818797515      4.2093110881667259
     8   1      3.6345632969821122      3.6475850415130848      1.4029665447379849
