LAMMPS data file via write_data, version 7 Feb 2024, timestep = 1139, units = metal

6 atoms
1 atom types

0 6.857572544502622 xlo xhi
0 4.571715029668415 ylo yhi
0 2.2858575148342073 zlo zhi

Masses

1 51.9961

Atoms # atomic

1 1 3.391565372802033 1.7408254441370716 0.3849585652504962 0 0 0
2 1 4.4662318237571235 1.7759708239343939 1.5268823831342964 0 0 0
3 1 3.4401127910407414 4.083506949719949 0.37370206333784245 0 -1 0
4 1 4.491236242361404 2.903855316281806 0.3850464004731409 0 0 0
5 1 4.499140811828163 4.060565931771286 1.5196894985752771 0 0 0
6 1 4.552558187167815 0.6439672032484007 0.3916702331540887 0 1 1

Velocities

1 5.6716778607592624e-09 1.6093179700381269e-07 -4.8806347159964933e-08
2 8.394791844390791e-09 7.626051038750167e-09 -1.4085539230567602e-08
3 -1.3279700932982802e-08 -1.404517164854598e-07 4.644157784190668e-08
4 1.3312590155523736e-07 -2.6112302925929745e-08 -6.419800950742151e-09
5 -1.6676741751989866e-08 2.9378078313343644e-08 2.5700759946181812e-08
6 -1.172359568355502e-07 -3.1371931398190135e-08 -2.8306296512605828e-09
