LAMMPS data file via write_data, version 7 Feb 2024, timestep = 5210, units = metal

7 atoms
1 atom types

0 2.2858575148342073 xlo xhi
0 16.001002603839453 ylo yhi
0 2.2858575148342073 zlo zhi
11.429287574171036 0 0 xy xz yz

Masses

1 51.9961

Atoms # atomic

1 1 4.964178346975315 5.356030981091449 1.9296537782430752 2 0 0
5 1 3.8207747215196264 4.557583795472033 1.874303309100928 -1 0 1
6 1 3.821725304523491 4.774194685480941 0.26696907661264396 0 0 0
7 1 4.964122642852043 4.503693145035584 0.8936598837376293 0 0 0
3 1 6.107197073112285 5.371364893893822 0.9935132768469023 1 0 -1
2 1 12.694744547504474 14.982139866075762 2.2538425983334465 0 0 0
4 1 8.238803667774418 10.865912261690815 2.0608444580129217 1 0 -1

Velocities

1 -1.4931613560546086e-06 -2.402678725917898e-05 -9.135189464629713e-07
5 -4.6188450147443494e-06 2.488946518921051e-06 -9.27878454525785e-07
6 -8.07338525431344e-06 1.4191086571255452e-06 -2.9907693825883524e-06
7 2.1666134543421116e-06 8.290571167272503e-07 1.3551350453248417e-06
3 1.1597520261768551e-05 1.9232333349190687e-05 -6.661229371164122e-07
2 -1.46232047315954e-06 3.905002476371102e-07 3.355421333785527e-06
4 1.8835783821674027e-06 -3.331586302703308e-07 7.877333415641719e-07
