LAMMPS data file via write_data, version 7 Feb 2024, timestep = 170, units = metal

6 atoms
1 atom types

0 6.857572544502622 xlo xhi
0 4.571715029668415 ylo yhi
0 2.2858575148342073 zlo zhi

Masses

1 51.9961

Atoms # atomic

1 1 6.359185168783076 3.5131800418791945 1.2320140743193118 0 0 0
2 1 1.6554788236785623 3.752136381907942 1.5543827731059243 0 0 0
3 1 0.0960770590795397 1.5495840461486192 1.4975566172116432 1 0 0
4 1 2.3441670392360274 1.571722180402173 1.601252581356923 0 0 0
5 1 3.907992857648674 3.457492267397829 1.2974243848176596 0 0 0
6 1 4.550624826372795 1.1495463370737864 1.0097430849656424 0 0 0

Velocities

1 0.005608078001676148 -0.003998619933579591 -0.0030565014203386837
2 0.001354341444626015 0.005942268760385291 -0.00554916008947885
3 -0.004308476966548686 0.0050265710599608614 0.005616016264814477
4 -0.004713706289877836 0.00502955197166009 -0.0005617811321522926
5 0.004042806424538484 -0.006348204568797105 0.001835913090804748
6 -0.001983042614414137 -0.005651567289629584 0.0017155132863506096
