ats_1.data (written by ASE) 

8 	 atoms 
1  atom types
0.0      5.7599999999999998  xlo xhi
0.0      5.7599999999999998  ylo yhi
0.0      2.8799999999999999  zlo zhi


Atoms 

     1   1      3.0971695871138674       4.172306328159828      1.3512010701893369
     2   1      5.3688089069139684      5.4253224347155946      2.6428222641481312
     3   1      2.0394461497843679      4.2701225849179751     0.19237933364495818
     4   1      2.4606420593636682     0.98009462580622331      2.4868221307133913
     5   1     0.04356671500432685      2.8012502805713835     0.45848502709994321
     6   1      3.6182730925038729    0.063012633022192122      2.4169633534171471
     7   1      4.5692886101688934      2.3618543589422814      2.3928352397816441
     8   1      4.2211491820017786      4.2000757155537807     0.10218791148244599
