ats_0.data (written by ASE) 

8 	 atoms 
1  atom types
0.0      5.7599999999999998  xlo xhi
0.0      5.7599999999999998  ylo yhi
0.0      2.8799999999999999  zlo zhi


Atoms 

     1   1    0.024835707650561634  -0.0069132150585592333    0.032384426905034625
     2   1       1.516151492820401      1.4282923312638329      1.4282931521525406
     3   1    0.078960640775369573      2.9183717364576447   -0.023473719296747606
     4   1      1.4671280021792981      4.2968291153593769      1.4167135123214869
     5   1      2.8920981135783013   -0.095664012232889895   -0.086245891625651647
     6   1      4.2918856235379517      1.3893584439832785      1.4557123666297633
     7   1       2.834598796223939      2.8093848149332348    0.073282438446077708
     8   1      4.3087111849756736      4.3233764102343963      1.3687625906893268
