iter_0.data (written by ASE) 

2 	 atoms 
1  atom types
0.0      2.8799999999999999  xlo xhi
0.0      2.8799999999999999  ylo yhi
0.0      2.8799999999999999  zlo zhi


Atoms 

     1   1                       0                       0                       0
     2   1      1.4399999999999997      1.4399999999999997      1.4399999999999997
