iter_0.data (written by ASE) 

4 	 atoms 
2  atom types
0.0      4.2999999999999998  xlo xhi
0.0      4.2999999999999998  ylo yhi
0.0      4.2999999999999998  zlo zhi


Atoms 

     1   1                       0                       0                       0
     2   2                       0      2.1499999999999999      2.1499999999999999
     3   2      2.1499999999999999                       0      2.1499999999999999
     4   2      2.1499999999999999      2.1499999999999999                       0
