LAMMPS data file via write_data, version 7 Feb 2024, timestep = 14, units = metal

8 atoms
1 atom types

0 5.76 xlo xhi
0 5.76 ylo yhi
0 2.88 zlo zhi

Masses

1 51.9961

Atoms # atomic

1 1 3.2434715956812306 4.238987069800438 1.345319866081647 13 0 0
2 1 5.304635369208199 5.390368084474834 2.644672126355773 0 0 0
3 1 2.0795638759989146 4.262963926002238 0.19304785997523 0 0 0
4 1 2.4297973754574143 0.987434979274977 2.499451908872813 -1 0 0
5 1 0.041388604715937305 2.839079505176387 0.4332262741093005 0 0 0
6 1 3.657334039768047 5.629633069903576 2.426014446585795 1 -12 0
7 1 4.539522538332947 2.4279325118293453 2.3900218021701853 0 0 0
8 1 4.1226309036920545 4.257639815227462 0.11194204632625449 0 0 0

Velocities

1 0.0019226117218168908 0.00193466293080158 -0.00047811740671505824
2 0.0009633402597103941 -0.002068937783406916 -0.00034862536222562154
3 0.000738510613068245 0.0003278314538545962 0.0024751671102450257
4 -0.00044814679764623776 -0.0005613824076365465 -0.0011777009229240656
5 -0.001453828900571328 0.0010897488242065025 0.0020204737548914736
6 -0.00038369503498391434 -0.0002878894106625995 -0.000709890342966035
7 -0.0012537640971466992 -0.00036844391185309074 -0.0013788240440405315
8 -8.502776424734974e-05 -6.558969530352602e-05 -0.00040248278626518736
