LAMMPS data file via write_data, version 7 Feb 2024, timestep = 78, units = metal

2 atoms
1 atom types

0 2.508093662109755 xlo xhi
0 5.01618732421951 ylo yhi
0 2.508093662109755 zlo zhi

Masses

1 183.84

Atoms # atomic

1 1 1.5969690155103344 3.020655183964552 1.5638203218904174 0 0 0
2 1 0.3407205976582131 1.2904818936145168 0.27020517970739766 1 0 1

Velocities

1 -0.10870446776039173 0.11620552245154447 -0.05686582277546145
2 0.10870446776039723 -0.11620552245154855 0.056865822775462385
