LAMMPS data file via write_data, version 7 Feb 2024, timestep = 333, units = metal

7 atoms
2 atom types

0 2.508093662109755 xlo xhi
0 2.508093662109755 ylo yhi
0 17.556655634768287 zlo zhi
0 5.01618732421951 2.508093662109755 xy xz yz

Masses

1 183.84
2 9.012183

Atoms # atomic

6 1 3.587312289360451 2.574783873525579 7.4130346856158384 0 0 0
1 1 6.16029556900223 3.6785789316747954 17.027801714853556 1 1 0
2 1 6.159465861939882 3.6641462138642895 17.027621148119103 1 1 0
3 1 4.545105531799399 3.339271623068548 12.88857008822507 1 1 0
4 1 6.981175116882703 2.5889813468380916 17.02074191996643 1 1 0
5 1 3.3992933022288203 2.2171885528979356 11.13915295662061 1 1 0
7 2 4.748830362770447 3.616767660861263 9.313177078537274 0 0 0

Velocities

6 -0.050596455576161985 -0.08811650850945324 -0.11550587392751706
1 0.1302253524933177 -0.4374614114626687 -0.3693605562386914
2 0.18778021250677396 0.46394682425885947 0.535060035095781
3 0.10334911999731987 0.08535482517190335 -0.05226858278222853
4 -0.31877287285061956 0.0234146205037341 0.0751801263763847
5 -0.041935120141328025 -0.028290887011170565 -0.07181009319119537
7 -0.11793236251305411 -0.22116331075174928 -0.015196829728003524
