LAMMPS data file via write_data, version 7 Feb 2024, timestep = 773, units = metal

5 atoms
2 atom types

0 2.508093662109755 xlo xhi
0 12.540468310548775 ylo yhi
0 2.508093662109755 zlo zhi
7.5242809863292655 0 0 xy xz yz

Masses

1 183.84
2 9.012183

Atoms # atomic

3 2 0.8947010692739639 1.0048453326864066 0.4360987584307057 1 0 0
5 2 2.1487493347623063 2.860603463916467 1.6848813115837076 1 0 0
1 1 7.164931916181389 11.704329911216883 1.6693370371074137 1 0 0
2 1 4.6627413208073705 7.692465457658815 0.8559258151155064 1 0 0
4 2 8.418928264066746 9.861572586209533 0.4008496140017451 1 0 0

Velocities

3 -0.0005056261045923217 -2.021687177528146 -0.5582647301601588
5 -0.000534419488201539 0.9828538839176229 -0.5767242205062992
1 -0.0008022692638983798 -0.08708590821880724 -0.8565194728502081
2 0.0005711736195415793 0.2955508587912941 1.2521526507223888
4 0.0023135630636133848 -0.28883683537282046 -0.6377939220911755
