LAMMPS data file via write_data, version 7 Feb 2024, timestep = 569, units = metal

9 atoms
2 atom types

0 22.572842958987795 xlo xhi
0 2.508093662109755 ylo yhi
0 2.508093662109755 zlo zhi

Masses

1 183.84
2 9.012183

Atoms # atomic

5 2 1.174873933672984 0.6367549553357984 0.18041234597071723 0 0 0
2 1 6.662203814244228 2.500431455974543 2.272969909348542 0 -1 0
4 2 8.534092034581269 1.2449478325345698 1.0220115392090843 0 0 0
7 2 14.443537298570078 2.499831611295373 0.35238256220653863 0 0 1
8 2 12.56441409662584 1.2463016796059783 1.6063811549746931 0 0 0
9 2 10.409523254973443 2.501704344541732 2.2769534729005243 0 0 0
1 1 21.520645434058235 1.8935881004816895 0.5280287041599505 0 0 0
3 2 17.769206785560943 1.8938568742059956 0.5229994416715045 0 0 0
6 2 19.65111991175979 0.6404668480212071 1.7784892811117063 0 0 0

Velocities

5 -0.17518901089260233 -0.6105971584754035 0.22777333871309624
2 0.09040982525622156 -0.2792526006127404 0.7964238740045695
4 0.6395256461588802 0.5986906963870934 1.0071495787092974
7 -0.03966155692351122 0.17521399570501942 -2.0397510428825743
8 -0.6886596194112115 0.3674525903940918 -1.8062155676595653
9 0.49364172885794977 -0.18555426261836672 0.4800308986632094
1 -0.13747126813362676 -0.05730308741061982 -0.0706026408431354
3 -0.6116100532938883 0.4326585367397565 -0.027302390269011777
6 0.46965454735465284 0.2564938148253463 -0.06415039898114147
