LAMMPS data file via write_data, version 7 Feb 2024, timestep = 375, units = metal

6 atoms
2 atom types

0 2.508093662109755 xlo xhi
0 7.5242809863292655 ylo yhi
0 5.01618732421951 zlo zhi
2.508093662109755 0 2.508093662109755 xy xz yz

Masses

1 183.84
2 9.012183

Atoms # atomic

1 1 2.7138341502882457 7.637052363759951 4.728255761969935 0 0 0
2 1 3.965749774088966 8.854808246127547 2.9055086543180737 0 -1 0
3 1 2.7117360509431534 2.140000209380066 0.8165541208613499 0 0 0
4 1 1.4598839531807792 5.631390220697309 3.8231216651461852 1 0 0
5 1 2.717526840876979 3.4550865549879326 3.5583816413227964 0 0 0
6 2 2.712595458723694 6.852683701085976 1.9521684608507461 1 0 0

Velocities

1 -0.003370178533061479 0.03265836647405881 -0.2157691337562219
2 0.005870579693162241 -0.152436335047574 -0.11273225943043848
3 -0.0031666103023539707 0.06418727020393256 -0.20355522252802535
4 0.0005315037742929061 -0.23923956806408644 0.27619523895659326
5 -0.0005032072001696094 0.19058450150195305 0.2445715637430413
6 0.0037983962751912525 0.9332167999523551 -0.003287692614701465
