LAMMPS data file via write_data, version 7 Feb 2024, timestep = 405, units = metal

6 atoms
2 atom types

0 2.508093662109755 xlo xhi
0 7.5242809863292655 ylo yhi
0 5.01618732421951 zlo zhi
0 0 2.508093662109755 xy xz yz

Masses

1 183.84
2 9.012183

Atoms # atomic

1 1 1.973518689291653 5.426658755712619 1.3136965691881346 0 0 0
2 1 0.7359053716736269 3.209568756720372 1.039449068695988 0 0 0
3 1 0.7358369474057895 5.93507397123374 3.4812207710245033 1 0 0
4 2 1.9924510521420025 3.700147941002348 3.244447122390783 0 0 0
5 2 1.998080483408857 7.812071575456854 2.237089750502701 0 0 0
6 2 0.7398847156311924 9.800493076132327 5.001487885644722 1 -1 0

Velocities

1 0.06598651120866542 0.2646806014946413 -0.2220376065344861
2 -0.07958013890763806 0.2834608209670174 -0.42081763567906155
3 0.03216061125448041 -0.6122358471028078 -0.048928196447085334
4 -0.028100315651678653 -1.580662652851459 1.0194983788191685
5 0.009565177504821708 -0.09644420381929245 1.178820278387366
6 -0.04626200091158085 1.7629122776467017 0.37556148013372886
