LAMMPS data file via write_data, version 7 Feb 2024, timestep = 200, units = metal

5 atoms
1 atom types

0 2.508093662109755 xlo xhi
0 2.508093662109755 ylo yhi
0 12.540468310548775 zlo zhi
0 0 7.5242809863292655 xy xz yz

Masses

1 183.84

Atoms # atomic

1 1 0.5858396449492328 4.682290293425063 5.013458907970796 0 0 0
4 1 1.7795357990039362 3.3137404778450215 5.043312220004613 0 1 0
5 1 1.7518168850922697 3.3509158477707386 5.043031007226892 0 0 0
2 1 1.7779979013069902 5.850407407001939 6.562963662930215 0 1 0
3 1 0.7313182239541224 6.662547701288391 9.901270480327815 0 1 0

Velocities

1 0.16498765533314227 0.37649587873469065 -0.000848698047481564
4 -1.0745293043079995 1.0245856804282685 1.0427909157318473
5 1.0117346444254138 -1.3175627653186226 -1.0268910304247632
2 -0.10054234731870619 -0.08619234293636263 -0.030081466144301523
3 -0.0016506481318520417 0.0026735490920274108 0.015030278884703898
