LAMMPS data file via write_data, version 7 Feb 2024, timestep = 319, units = metal

6 atoms
2 atom types

0 2.508093662109755 xlo xhi
0 2.508093662109755 ylo yhi
0 15.048561972658531 zlo zhi
0 0 7.5242809863292655 xy xz yz

Masses

1 183.84
2 9.012183

Atoms # atomic

6 2 1.0398995131230917 3.2150798977410275 5.106706434809206 0 1 0
1 1 1.0362161524509275 5.729604350540411 8.839189222572825 0 1 0
2 2 2.2887430957831882 9.499451658419883 14.428792675463685 0 0 0
3 2 1.0348994051907712 8.237675614593272 12.557446180469023 0 0 0
4 2 2.293842362148665 4.471449522650428 6.972972670121731 0 1 0
5 2 2.289155439154705 6.981310781649656 10.702967567906272 0 1 0

Velocities

6 -0.08106882199564025 0.9200473264155473 0.0674254407267939
1 0.013991803093797302 0.23433242804008897 -0.5482791419129814
2 0.0911543762612553 0.35433040382336867 1.1269287914810608
3 0.027198778968525815 -1.0539450587079395 -0.6716974444196511
4 -0.03439703040854923 0.644329535580075 0.04732750280201125
5 -0.03669812781876379 -1.4299240245120222 0.8845608261922399
