LAMMPS data file via write_data, version 7 Feb 2024, timestep = 62, units = metal

2 atoms
1 atom types

0 2.508093662109755 xlo xhi
0 2.508093662109755 ylo yhi
0 5.01618732421951 zlo zhi

Masses

1 183.84

Atoms # atomic

1 1 0.8685917515447462 1.2597221905467184 1.5437298504466703 0 0 0
2 1 2.121214828907329 2.4859476026448197 4.807289292455982 0 -1 -1

Velocities

1 -0.0416464660596007 0.024588184411012723 0.020174444949183468
2 0.04164646605959873 -0.024588184411009385 -0.020174444949187832
