LAMMPS data file via write_data, version 7 Feb 2024, timestep = 179, units = metal

5 atoms
1 atom types

0 2.508093662109755 xlo xhi
0 2.508093662109755 ylo yhi
0 12.540468310548775 zlo zhi
0 7.5242809863292655 0 xy xz yz

Masses

1 9.012183

Atoms # atomic

1 1 5.2056761010714645 2.079130239725363 5.174975847679381 0 0 0
4 1 5.472756731290184 0.5794172952858712 5.18411419426603 0 1 0
5 1 3.7448006170943873 2.063046945295808 5.174664207188872 0 0 0
2 1 3.476674334466196 0.5752933779226792 5.18389007764006 1 1 0
3 1 5.729576378692543 0.18781139775435204 6.6050458905721605 1 1 0

Velocities

1 0.5789134334650682 -0.592835537890459 0.1277825394523183
4 1.681458581028763 0.576128929369662 -1.0410439893708365
5 -0.38732635536838395 1.0611277021258398 -0.008902915468383867
2 -1.3666058765366145 0.8338783064881523 0.9964958078285766
3 -0.5064397825887398 -1.8782994000932762 -0.07433144244167396
