LAMMPS (2 Aug 2023 - Development - 1b86d647de-modified)
Total wall time: 0:00:00
