mc_0.data (written by ASE) 

8 	 atoms 
2  atom types
0.0      4.2999999999999998  xlo xhi
0.0      4.2999999999999998  ylo yhi
0.0      8.5999999999999996  zlo zhi


Atoms 

     1   1                       0                       0                       0
     2   1                       0      2.1499999999999999      2.1499999999999999
     3   1      2.1499999999999999                       0      2.1499999999999999
     4   2      2.1499999999999999      2.1499999999999999                       0
     5   1                       0                       0      4.2999999999999998
     6   1                       0      2.1499999999999999      6.4499999999999993
     7   1      2.1499999999999999                       0      6.4499999999999993
     8   2      2.1499999999999999      2.1499999999999999      4.2999999999999998
