LAMMPS data file via write_data, version 7 Feb 2024, timestep = 346, units = metal

8 atoms
1 atom types

0 5.76 xlo xhi
0 5.76 ylo yhi
0 2.88 zlo zhi

Masses

1 51.9961

Atoms # atomic

1 1 3.4348336765867558 2.5607094326622573 0.6063074094400059 0 0 0
2 1 1.4443547095158225 3.349473835519456 2.1265388618385375 0 0 0
3 1 4.5608427778426295 3.8532480909163156 2.5466312262419692 0 0 0
4 1 0.16873428733353446 4.664048354530816 1.0463067705207563 1 -1 0
5 1 1.8782297981884906 1.2445391417320852 0.3545165130306999 0 0 0
6 1 0.2744486406521309 1.0245003760565916 2.061508177470364 1 0 0
7 1 2.768566083549076 5.227522113149007 0.1211423597236565 0 0 0
8 1 4.190172299313591 1.3196167015999407 2.204827748543297 0 0 0

Velocities

1 4.28689456948112e-08 4.0469439601817985e-09 -5.1827727957581025e-08
2 3.111127021952323e-08 1.7766341982026406e-08 -1.0008018798279681e-09
3 -2.2059006749524805e-08 2.2664756042277115e-08 -1.1501752842235945e-08
4 5.936048379903045e-09 -1.0669849008539019e-08 -8.512322278674874e-09
5 -4.1737087484630175e-08 -4.93294106092473e-08 9.080253483315685e-08
6 5.5646930581280896e-09 -8.01916832225537e-09 -1.5995246899481715e-08
7 -1.6679894104501708e-08 5.2261611227341784e-08 8.227384377233809e-09
8 -5.004969013708805e-09 -2.8721225271785442e-08 -1.0192067352589129e-08
