LAMMPS data file via write_data, version 7 Feb 2024, timestep = 2038, units = metal

8 atoms
1 atom types

0 5.76 xlo xhi
0 5.76 ylo yhi
0 2.88 zlo zhi

Masses

1 51.9961

Atoms # atomic

1 1 4.653531804042441 4.901827330952867 0.20697834469693727 0 0 1
2 1 4.27443804281137 3.6156131871869848 1.1116781314976762 0 0 0
3 1 3.591399697185751 3.791880681816081 2.5517938013066312 0 0 0
4 1 3.109217016386535 5.2185472428395405 0.2049782275919697 0 -1 1
5 1 2.4565431073978092 4.381917344154012 1.4161250146767113 0 0 0
6 1 5.4405936738150515 4.6362895901049 1.6007924340065909 -1 0 0
7 1 3.890673335566628 5.083269285897218 1.6370958357674457 0 0 0
8 1 4.135008165273382 0.6216375426878961 0.6779122641199584 0 0 0

Velocities

1 7.118159472155713e-07 2.0604004479868652e-07 4.6211828778859e-06
2 8.479213990905244e-07 -1.8404119233897844e-06 -1.214357178153469e-06
3 4.1297867262117895e-07 -7.888096672476021e-07 -2.011542336133657e-07
4 -3.995269325338541e-07 3.111410988999793e-08 -5.735565544774804e-06
5 -1.5950500976300463e-06 2.477191591704183e-06 2.5619347171440325e-06
6 1.4001425863659875e-06 7.236727312476859e-07 -1.0797796680118891e-06
7 -1.8344496753319925e-06 -2.885303296073789e-07 1.1027337868676338e-06
8 4.5616810020321774e-07 -5.202665573955747e-07 -5.499475734358676e-08
