LAMMPS data file via write_data, version 7 Feb 2024, timestep = 1473, units = metal

8 atoms
1 atom types

0 5.76 xlo xhi
0 5.76 ylo yhi
0 2.88 zlo zhi

Masses

1 51.9961

Atoms # atomic

1 1 2.615098730346078 5.6658718267495 1.4161107003403666 0 0 0
2 1 1.3653673607313888 1.505144159058014 0.46967673957539374 0 0 0
3 1 2.066431248215562 1.362654749370621 1.9116770003673198 0 0 0
4 1 0.4844333079199555 1.689387872637698 1.802450866012636 1 0 0
5 1 2.963234505741087 1.2198599088640254 0.4058801210991772 0 0 0
6 1 1.8782520412903192 0.06950468868640601 2.8698207497449366 0 0 -1
7 1 0.310259528696808 0.41660971568386973 2.7972305442853846 1 1 0
8 1 1.032944297477981 0.23527301910191456 1.3758818100135248 0 1 0

Velocities

1 -2.452393518026102e-08 -2.1953691111459017e-08 1.4371464470751336e-08
2 1.410164649114976e-08 2.073965483195431e-09 2.581721498168399e-10
3 1.9616372083617982e-08 -1.3860707771873514e-08 -3.2764208525783584e-09
4 5.068508514938236e-08 4.0262046115947437e-08 2.0136083975120326e-08
5 1.3789608914447503e-08 -2.8979486369164808e-08 -9.179510382646538e-09
6 -1.7389481448377277e-08 -7.928639496995239e-09 4.4807947388361765e-09
7 -5.1655839323171936e-08 5.78114213988989e-09 -3.285076757592848e-08
8 -4.623456686783384e-09 2.460537101046642e-08 6.060183476629934e-09
