LAMMPS data file via write_data, version 7 Feb 2024, timestep = 1277, units = metal

8 atoms
1 atom types

0 5.76 xlo xhi
0 5.76 ylo yhi
0 2.88 zlo zhi

Masses

1 51.9961

Atoms # atomic

1 1 5.321303297504135 1.484751942512773 1.7831505779223995 0 0 0
2 1 0.2548532213255385 1.101112789503756 0.34952326911930337 1 0 0
3 1 2.31735637843491 1.2924723312126454 1.1986160188845543 0 0 0
4 1 0.9508136788245916 2.1695329859489823 1.2894345278843098 0 0 0
5 1 0.9346678297103878 0.6768722384321594 1.7890970269161512 0 0 0
6 1 1.58538270039474 1.8208266733869927 2.7261388635455273 0 0 0
7 1 0.7213656128921293 3.1957334769725945 0.032551130971663476 0 0 0
8 1 0.7171817155343498 5.319692267493788 0.05099156960468996 1 0 0

Velocities

1 1.4932750734274821e-06 -9.998437271527347e-07 1.7983481846370057e-06
2 -1.094289260295956e-06 2.040390502645236e-06 1.4980919525739204e-06
3 2.0775902533437073e-06 -6.071806938090113e-07 -2.4680627838172503e-06
4 9.074433126106709e-07 -3.9655828196165266e-07 2.3361295285864982e-07
5 1.8662334824785236e-07 1.2027916349426156e-06 1.074358292779243e-06
6 -1.1610733668803024e-07 -1.7409292624399916e-07 -1.4550726489200027e-07
7 -1.7659427268325579e-06 -1.508424953585302e-06 4.937456727188656e-08
8 -1.688592663813231e-06 4.4291844516459377e-07 -2.0402159014119675e-06
