LAMMPS data file via write_data, version 7 Feb 2024, timestep = 2001, units = metal

8 atoms
1 atom types

0 5.76 xlo xhi
0 5.76 ylo yhi
0 2.88 zlo zhi

Masses

1 51.9961

Atoms # atomic

1 1 2.159944963255693 4.151123039533635 2.8568289549747323 0 0 0
2 1 1.946854405338797 1.955917469828715 0.680358706102179 0 0 0
3 1 2.2470531382168906 2.7224771892797714 2.1482034330187867 0 0 0
4 1 0.750511123925019 2.502239784996647 1.6203192245602738 1 0 0
5 1 1.6616315164264996 1.21877552459042 2.114646037404475 0 0 0
6 1 1.4809965807678886 3.955584365814263 1.4047011118546946 0 0 0
7 1 1.517485669620066 5.403087002003395 2.1397829092606155 0 0 0
8 1 1.6562915614628835 0.36332031885184446 0.7135843251392251 0 0 0

Velocities

1 7.483431814350105e-08 1.350157966432617e-07 6.430939777902841e-08
2 9.623500113814119e-07 -4.040975549742252e-07 1.1321469016948747e-07
3 -3.925161719379932e-07 7.221377669768309e-08 1.741674314112162e-07
4 1.1506143008462874e-07 -6.240152002252063e-08 -1.2815475004154983e-06
5 -3.063600896164198e-07 1.4440505640074692e-07 1.6276640824902362e-07
6 -8.608757780167809e-09 2.4759792281001385e-07 5.7883905948583036e-08
7 -3.408617612801284e-07 4.0348688873876896e-08 3.7672409651774125e-07
8 -1.0389895455080606e-07 -1.7308216148289583e-07 3.324815158098102e-07
