LAMMPS data file via write_data, version 7 Feb 2024, timestep = 1123, units = metal

8 atoms
1 atom types

0 5.76 xlo xhi
0 5.76 ylo yhi
0 2.88 zlo zhi

Masses

1 51.9961

Atoms # atomic

1 1 2.5667438297520713 2.467727529604668 0.728526022266203 0 0 0
2 1 4.143148388265562 2.8838141468326217 0.7412871115415318 0 0 0
3 1 1.810498003874168 2.2879336537401995 2.153940919624196 0 0 0
4 1 2.9805014955302496 3.925954234362976 1.2513852539442596 0 0 1
5 1 1.017372591027289 2.981420797557872 0.5339418346357453 0 0 0
6 1 2.2797686359218106 3.7437889948833267 2.695693632739341 0 0 -1
7 1 2.878508955335887 1.1725877379166627 1.604100468384933 0 0 0
8 1 3.3517589909224155 2.640500086476835 2.1675821376440236 0 0 0

Velocities

1 -2.8457784774211762e-06 -3.657515057314419e-06 -1.4415938218683704e-06
2 3.0246246360315967e-06 -1.2156045295586743e-05 -1.1255829211654121e-07
3 -7.503176969486991e-06 8.197280243528808e-06 -3.2060439263297895e-06
4 7.3615583810948496e-06 -2.3846060005696523e-06 -1.7912846829581626e-06
5 2.9098550676837483e-06 1.4571482808263973e-05 -1.0829190882435809e-06
6 8.53587898874754e-06 6.049923179495769e-06 -2.025622900393074e-06
7 -1.1972135994494462e-05 -1.950250715826397e-06 1.0128697733651184e-05
8 4.891743678427787e-07 -8.670269161993173e-06 -4.6867502174167965e-07
