LAMMPS data file via write_data, version 7 Feb 2024, timestep = 5298, units = metal

8 atoms
1 atom types

0 5.76 xlo xhi
0 5.76 ylo yhi
0 2.88 zlo zhi

Masses

1 51.9961

Atoms # atomic

1 1 1.3898454973233791 3.818521927877007 0.2840945392783055 0 0 0
2 1 5.625576200625995 3.1964132247472627 0.18607659664405857 -1 0 0
3 1 4.325782805398978 4.046260209593816 0.646787392413485 0 0 0
4 1 5.094951966173707 4.423832141617547 2.14533372440602 0 0 0
5 1 0.5332021349383197 3.4457365818426786 1.6325212197520262 0 0 0
6 1 0.8246107197236898 4.9521623160730455 2.1446195653530116 0 0 0
7 1 5.564267656566064 0.3085392267034483 2.7626543474162326 -1 0 -1
8 1 0.07236040430210533 4.68293413490552 0.7049134354902648 1 0 1

Velocities

1 -5.216475442890895e-06 -1.4237561394800368e-05 8.426192071194314e-07
2 -1.1807872334620636e-05 2.633570040314021e-06 4.435034808626231e-07
3 -2.117305553524089e-06 1.6474759427376736e-05 3.8765316140071555e-07
4 2.1953649835355598e-06 8.848572700656908e-06 1.2590117464491464e-06
5 -9.2400338775957e-06 -5.308448647241978e-06 7.450649303701866e-07
6 8.337019935850556e-06 -8.1875505031364e-06 8.060292535947593e-07
7 1.3087473759248878e-05 -7.506298846697002e-07 -4.426327069259939e-06
8 4.761828526783913e-06 5.272882676864337e-07 -5.755469654366436e-08
