LAMMPS data file via write_data, version 7 Feb 2024, timestep = 1952, units = metal

8 atoms
1 atom types

0 5.76 xlo xhi
0 5.76 ylo yhi
0 2.88 zlo zhi

Masses

1 51.9961

Atoms # atomic

1 1 0.3212274899211022 4.553810208959866 1.8996581970438648 0 0 0
2 1 0.3324249559655157 1.3559345757044663 0.8838688055772604 0 0 0
3 1 4.71666706728227 5.162500377779554 2.5184088483769536 0 0 0
4 1 0.3275831685289468 0.24645892688747437 2.571548440823863 1 0 0
5 1 1.6913599144205493 5.1520950905318434 2.5187464069805228 0 -1 0
6 1 5.2924021072798215 5.691550740459513 1.083540327120567 0 0 0
7 1 1.1197022606955307 5.685262517327405 1.0835544899270626 0 0 0
8 1 0.3536004589053341 3.8040394478569404 0.45559670254912443 0 0 0

Velocities

1 -1.349684268025213e-06 7.004462312100495e-07 -6.547313061208968e-07
2 -1.9109659298882093e-06 -2.9910390100139774e-06 -3.920196421191217e-06
3 -6.089507769845114e-08 2.9091078197761396e-07 -4.6173549219082727e-07
4 -6.761971720759337e-07 3.628326487248493e-06 1.1259979446188796e-06
5 -1.9508574500834068e-06 -5.302226858346199e-07 -1.7192213341868132e-06
6 -5.376703428355832e-07 2.9098056237486173e-06 1.3055720846463444e-06
7 3.1097981207502677e-06 -3.598312166529934e-06 4.857223732104994e-06
8 3.376472119856503e-06 -4.0991526180601413e-07 -5.329092076808272e-07
