LAMMPS data file via write_data, version 7 Feb 2024, timestep = 49, units = metal

38 atoms
3 atom types

0 2.2858575148342073 xlo xhi
0 4.571715029668415 ylo yhi
0 22.858575148342073 zlo zhi
0 2.2858575148342073 2.2858575148342073 xy xz yz

Masses

1 28.085
2 50.9415
3 51.9961

Atoms # atomic

4 2 0.6385468623574194 3.7647076712420886 3.5217705254468203 1 0 0
5 2 0.6606017342633469 1.1499328293592204 6.425071656531283 1 1 0
6 2 2.012395439804763 2.9483275864354557 1.596520859915561 0 0 0
9 2 0.9211905820929976 1.349918610847887 1.0883608290095081 1 0 0
11 3 0.4748739271990738 3.1086828928781975 0.001448877315075036 1 0 0
14 3 0.7722925685265072 3.8502140599190855 5.917109641888909 1 0 0
16 3 1.0013365210484393 2.400956290378141 3.0230263754795783 1 0 0
20 3 1.4627844538824184 4.377048019772787 1.6714797078766772 1 0 0
22 1 1.531254374284542 4.813297611150535 4.743463268719819 1 0 0
24 1 1.930824564485617 2.2778766803870583 4.879473393945863 0 0 0
31 1 2.2725589925848237 0.9277859806307984 3.073393129838721 0 0 0
32 1 1.9362902459309077 2.365634058474447 4.911022475009853 0 0 0
34 1 2.305884007190549 2.583674251863504 22.670805815679735 1 0 -1
3 2 2.395792899722844 4.094986226341775 9.234032526361172 1 0 0
7 2 1.6355125262248527 5.901870038079285 14.29246873870327 1 0 0
8 2 1.096688215022509 4.058431756504593 10.853422494590301 1 0 0
15 3 1.9364351003558398 4.849977933407965 12.199358300052511 1 0 0
17 3 2.624322341934275 1.2079329528830942 10.487538227751829 1 1 0
18 3 2.279803188464568 2.909938306671803 14.80796168316865 1 1 0
19 3 1.4129722216927183 2.560449861232665 9.150753799755776 2 1 0
23 1 1.6674616401524505 4.314385507099822 7.569946918325857 1 0 0
26 1 2.27148409790868 2.6038924049905727 7.266706690565081 0 0 0
27 1 1.0066746171054095 1.1784100078977837 8.548661067851537 1 1 0
28 1 1.888453287423946 2.6327345435049248 11.217828877889383 2 1 0
29 1 3.2004960890660312 3.203191024210109 12.995867809834804 1 1 0
36 1 2.739411759445929 1.75417011829333 12.719779963985747 1 1 0
37 1 3.3715373216714926 4.5149254658084 14.023240926586599 0 0 0
1 2 3.2056616526111323 6.095989064796048 16.023917669223533 1 0 0
2 2 2.4607304099320233 4.515353967629598 15.923024956642738 2 1 0
10 3 3.939380698453333 3.058270865228038 16.860617395894543 1 1 0
12 3 2.3597268946592753 4.839734229660216 19.867953303232966 2 1 0
13 3 3.6344280012406625 4.102109736719434 21.719703873289323 1 1 0
21 3 3.591225734451187 6.06923868848031 21.215450957723323 1 0 0
25 1 2.419967839680864 6.092118551247117 17.73502059671431 1 0 0
30 1 3.0412568432010074 3.427716754084278 18.740953397705713 2 1 0
33 1 3.74413015214589 6.387473779223837 19.23640366529044 0 0 0
35 1 2.41412327310198 3.01957462342423 20.510496370226832 2 1 0
38 1 3.5385811932874347 4.615483149039978 17.86550739956911 1 1 0

Velocities

4 -0.00034929600835038844 -0.0008697118450566613 -0.0014890260099753758
5 -0.001641485947246397 0.0012518086228714466 0.0026202736678106278
6 -0.00026648264315861357 -0.0005183036833519334 -0.0008879413103743323
9 0.00019051265170671894 0.0004689505599681424 0.0006859207815713076
11 0.00035893337681270243 0.0007510684149645276 0.0008589702872484123
14 0.0019973987151852834 0.0010594731633386098 0.0006126621792490619
16 -0.001018959296793142 -0.0008181654374764683 6.0475859828329344e-05
20 -0.0004793679955580446 -0.0009165917309103621 -0.0018926113606765672
22 -0.0006519457203680318 0.002089862710665214 -0.0012827365906264705
24 0.0025275094377793074 -0.001236001258002741 0.00043678944831999737
31 0.002211652265831324 0.004058750518966685 0.0024289554424497244
32 -0.0008514619999131457 -0.0025355854016546045 0.0014211253415801455
34 -0.00018761200935179907 0.002609760262106506 -0.002530671436024464
3 0.0011754271249157704 0.0002728293237716271 0.0032045041889283855
7 -0.0013844248686405575 -0.0006218072812268304 -0.0017474469094128388
8 0.00011727166767261545 -0.00023267320949648112 -0.0004929567016654032
15 0.0005199095008245305 0.0011554795304900935 -0.0002986548860759824
17 0.0007116002893008018 0.000711635742189222 0.0003979042231660653
18 0.0006257288679692843 -0.0009030865043567858 0.0021782430991992177
19 0.0010477847862535414 0.0013577803278284702 0.0005443760533426802
23 -0.0017743805875679445 -0.0008248769657597662 0.0001544861703281942
26 -0.0002586280595752125 -0.0019162251516951997 -0.0019120234483942509
27 0.0011214778607941628 -0.001128952044703459 0.0026339780103379206
28 -0.0031829164677995812 -0.0007875606689758784 -0.002803624966115699
29 -0.00010079711382931337 -0.0008254985904263309 0.0009513054827537308
36 -0.0011042875860475991 -0.00097759301589453 0.000573067950102825
37 -0.0007628175513311636 0.0029945011586473033 -0.0004896244735166935
1 0.0026968656937341514 0.0023374295209643227 -0.00059013879856588
2 0.0014643082798170323 -0.002806753265236102 -0.00042375588634178913
10 -0.0007079498967747742 2.6671657666460027e-05 0.00015549762764955794
12 -0.00016700545412678578 0.000840437452168719 -0.001188818964059937
13 -0.0005139291586970141 -0.0009425652619223902 -0.002517964597371803
21 -0.0010451634928342341 -0.0010013778135303322 0.001481551640473828
25 0.0021739609193338776 -0.0013494714451228152 0.0012259883231495632
30 -0.0016936938705287227 -0.0003472391290913149 -0.0016384442139258607
33 -0.0005225737953717778 0.0006899514834359957 0.0001575374966284201
35 -0.001071896253915971 0.0012351282510816017 0.0005539546673050003
38 -0.001964597312117589 -0.002891431310809583 -0.0022002672403136792
