LAMMPS data file via write_data, version 7 Feb 2024, timestep = 30, units = metal

36 atoms
3 atom types

0 2.2858575148342073 xlo xhi
0 2.2858575148342073 ylo yhi
0 59.432295385689386 zlo zhi
0 2.2858575148342073 22.858575148342076 xy xz yz

Masses

1 28.085
2 50.9415
3 51.9961

Atoms # atomic

3 2 1.7020185531330527 1.4016466287226146 0.610567024762222 0 0 0
6 3 0.9578868593621293 3.415410835337984 4.374831058996688 0 0 0
24 1 2.133231987812458 4.569483492116534 6.109122614116545 0 0 0
35 1 0.5443802734685738 2.474109745399832 2.3715418534181474 0 0 0
1 2 1.7142902851026272 3.8219172176909373 8.078484742564694 0 1 0
14 1 1.7657714490035912 4.797102937055043 11.542709488504984 0 0 0
32 1 0.6451337244314277 5.863547477162166 9.950125158303901 1 0 0
12 3 1.1873809699240365 6.9729516112202115 14.747533246467544 1 0 0
19 1 1.2481323449154849 8.906399008627405 17.775006112782627 0 0 0
20 1 2.3116401903713704 7.969241126416611 16.271466705745276 0 0 0
27 1 2.3333985777995463 7.624984227441546 19.29498666771271 0 1 0
29 1 2.7903811197376878 5.977989396144039 13.127205503495647 0 0 0
2 2 3.1840236085275144 11.114011816313067 24.65857987386083 0 0 0
30 1 2.1805593715886973 10.18869286886961 23.317529259093362 0 0 0
33 1 1.6780533276254888 9.649297313673737 22.27591060930483 1 1 0
34 1 3.048004982189024 8.600928971885772 20.84928097358626 0 1 0
36 1 1.9483494404928747 12.059493665526182 26.10107615684749 0 0 0
5 3 2.70821269114178 11.655485531922405 29.324577252438015 0 1 0
11 3 3.0871649505948344 10.763609173349707 27.63014294500995 0 1 0
17 1 2.6582987517108174 13.905506137752855 32.41194208436002 1 1 0
26 1 1.5749063070517115 12.772714977811184 30.867844650667017 1 0 0
7 3 2.458730283718283 13.796646109545588 35.62844776277315 0 1 0
8 3 1.4347268569263685 15.017328593631085 34.011080668443874 1 0 0
16 1 1.7569389005113307 15.366757280000861 39.14415706676504 1 1 0
31 1 3.155356132215145 14.662832029339 37.372883416378194 0 1 0
9 3 2.726972342028685 16.03465961424172 40.973424738462064 1 1 0
15 1 2.013489834385601 17.713784028290934 44.72963538690036 1 1 0
23 1 3.0557583043188394 16.96898454179198 42.916494104109375 1 1 0
4 2 4.1879436090465045 19.849792661587454 49.82377172410615 0 1 0
13 3 3.504164440759004 18.9406460521944 46.486395678729586 1 1 0
21 1 2.084929459445834 22.440712535931535 52.98784528589504 1 1 0
22 1 3.1734688838261498 21.156636538557745 51.387107026165275 1 0 0
28 1 2.5447101925539877 20.202985522747117 48.11686863362391 1 1 0
10 3 3.220600813630588 21.3876742244194 54.65307518021598 1 1 0
18 1 4.305085050875627 22.540059287238048 56.35733725555085 0 1 0
25 1 2.882889324698556 23.18566882801713 58.284576945033045 1 1 0

Velocities

3 0.0011652144297413462 0.0003083086594439976 0.0032229534356869975
6 -0.0002950450054824107 -0.0004856452404260147 -0.0009232981438700746
24 0.0025378422045407674 -0.001223449240431212 0.0004131821003642501
35 -0.0011162579772214002 0.0012852301254810098 0.0005321276943485885
1 0.0027097719003499905 0.0024042813288306427 -0.0006293507550625038
14 0.0027025761653160373 0.0013590439492620304 0.0008446353092593953
32 -0.0008924741316057769 -0.002542781114159753 0.0014124753933586424
12 -0.00019761697945512094 0.0008845418331401313 -0.001237128118585782
19 0.0013908448154861155 0.00177110494333402 0.0007503095528853302
20 -0.0007186589721591717 -0.0013705561462216609 -0.00261597720083369
27 0.0011104453837603545 -0.0011147733691125312 0.002643757870792062
29 -0.00013040257545688245 -0.0008067088114026842 0.0009355164233003106
2 0.0014584852558301915 -0.002818069487984188 -0.0004604395841981221
30 -0.0017475040712991701 -0.0003211819955102931 -0.0016935856140691849
33 -0.0005585883318564255 0.000731769166539188 0.00012968679729575126
34 -0.00021853665999208995 0.0026807502506315598 -0.0025993706057321013
36 -0.0011491415093286004 -0.000961114375918697 0.0005515314115529996
5 -0.0016767135545966223 0.0012930475777206455 0.002601922693402985
11 0.00033631371420519957 0.0007938147956613582 0.0008417781554919609
17 0.0009264626802369091 0.0008785652662261562 0.0005479834436571655
26 -0.00029063182909962805 -0.0019140094235513014 -0.001971322000579831
7 -0.0014184063880209779 -0.0005896505657068766 -0.0017869701441107799
8 9.056953106902862e-05 -0.00019863019019201726 -0.0005263988712538761
16 -0.0014640132728504318 -0.001234596836010155 8.188311695931988e-05
31 0.002217185449430063 0.004151758526575753 0.0024356198983723014
9 0.0001641655463260483 0.0005063946578925232 0.0006581931490014384
15 0.0006616742129902211 0.0014916605397932493 -0.0004141953879341682
23 -0.0018294168570901898 -0.0008060777408867036 0.0001265891048033499
4 -0.0003826775156594363 -0.0008515939051151673 -0.0015418969373874273
13 -0.0005498123362754315 -0.0009255543604273528 -0.002586470681298064
21 -0.001500209946463736 -0.0014876738076348593 0.0020448594330857014
22 -0.0006899261179066219 0.0021529526362635697 -0.0013324728631638253
28 -0.0032593560350628777 -0.0007681944072087839 -0.0028764717800232502
10 -0.0007467813014330256 5.8410523612191676e-05 0.0001276159316460055
18 0.0008078458065967775 -0.0013519009553939424 0.003007221083147936
25 0.0021789213669997456 -0.001338643654980455 0.0012143731854966883
