LAMMPS data file via write_data, version 7 Feb 2024, timestep = 40, units = metal

42 atoms
3 atom types

0 2.2858575148342073 xlo xhi
0 2.2858575148342073 ylo yhi
0 80.00501301919725 zlo zhi
0 11.429287574171036 9.14343005933683 xy xz yz

Masses

1 28.085
2 50.9415
3 51.9961

Atoms # atomic

8 2 1.0194185428011133 1.4006173324409115 1.1248905906136775 0 0 0
12 3 2.315234959070681 2.2236797095657943 2.857897354866104 0 0 0
41 1 1.234225216704033 0.8719379423242017 4.471639036938277 0 1 0
6 2 2.4360211809801626 1.7785877239864694 6.053537738272956 0 0 0
9 2 2.563722363669842 1.2462165273596961 9.208311417482198 0 0 0
30 1 2.7691804467093952 3.0859943766047486 12.421966081344365 0 0 0
39 1 1.3535191078285607 2.6633197683624164 7.633403198146946 0 0 0
42 1 3.791668363509406 2.139895440286772 10.794208429174464 0 0 0
3 2 3.1092248733234893 4.2990896405681385 17.89148188411975 1 0 0
14 3 4.300231894627975 3.127085321480954 16.14158295067866 0 0 0
16 3 4.045070061857828 1.8191196359391337 14.137872250869563 0 1 0
33 1 4.225488164158063 3.1516212386202276 19.634847128796377 0 0 0
5 2 3.112866718731087 4.298508792662518 21.397122140065274 1 0 0
36 1 4.338007673181895 3.1949929776684596 23.15319208454866 0 1 0
37 1 3.7316002951733878 4.4364298809240434 25.093017658417 1 0 0
10 2 4.907890495712272 3.8943353071201443 27.04912784201833 0 1 0
17 3 4.8303848954240785 4.058440179326251 30.490136109187326 1 1 0
22 3 6.022263537030502 5.109506090308826 28.792553356545966 0 0 0
40 1 5.892442895424316 5.310780489993423 32.211490925883474 0 0 0
1 2 5.3450045551347305 5.6137327287673475 35.79359675938067 1 0 0
7 2 6.454259417308095 4.484607510746468 37.48865241029296 1 1 0
25 1 6.559426854793971 4.407825048036196 34.08692108300411 0 1 0
26 1 7.584738906619331 5.6153432739849265 39.17862519084965 0 0 0
18 3 6.44845833272246 6.750622141446004 40.892489022541 1 0 0
23 1 6.314894843515522 6.6150241553163 43.05806248509556 1 0 0
21 3 7.4588645272561 6.759943385660177 45.04253271900499 1 0 0
28 1 8.564432211745423 5.614248350508542 46.771475657652225 0 1 0
2 2 9.212332229510126 7.663410377659649 52.465041776655966 0 1 0
11 3 8.092083286286835 6.463982642563847 50.709259713948 1 1 0
29 1 6.9995888794591306 6.787978105856757 48.68441293069773 1 1 0
13 3 8.395528664389348 8.218896819593908 56.40156194264169 1 0 0
19 3 8.03087341339592 6.594694111026618 54.23793500014442 1 1 0
31 1 9.095145155046305 7.170049172565308 58.36532555314319 1 1 0
32 1 10.078761123755113 9.03244271993834 60.48307250709161 1 0 0
35 1 9.703040230895034 8.942504887773987 62.86394162631956 1 0 0
4 2 10.426898257325824 9.792619249346151 68.7575692467118 1 1 0
24 1 12.168884472781723 10.164559634364414 72.93370362048667 1 1 0
27 1 11.573933355671896 8.220958527221999 66.74581154306716 0 1 0
34 1 10.603130816627484 8.969962122436126 70.96959084039946 1 1 0
15 3 12.877738205313243 8.872824561768374 76.93642530942967 1 1 0
20 3 13.120819098643263 10.715810491289893 79.07030549659427 1 1 0
38 1 11.731519923209285 9.978136308330415 75.18781660148531 1 1 0

Velocities

8 0.0001483974342567616 -0.00026901911886667936 -0.0005178430048662452
12 -0.00013774904889713444 0.0008111481486460673 -0.001218281147349679
41 0.00010552822433792332 -0.001530102585161486 7.951095714961102e-05
6 -0.0002378803841777099 -0.0005565278535055239 -0.0009154249698396077
9 0.0002221200394084982 0.0004372184174453435 0.0006687865900947495
30 -0.001674476726664573 -0.0003843384058140357 -0.0016708630616871728
39 0.002038674429993895 0.0017985726179738713 0.0020327195028387265
42 -4.440686489739984e-05 0.00015536916177571726 0.0010296999920355082
3 0.0012135111542904552 0.00023980751904379073 0.0032039318032699806
14 0.0020408878996270256 0.0010316242039812695 0.000595046250799797
16 -0.0009953052051763945 -0.0008583614510598195 3.922884154857744e-05
33 -0.0004956555512709501 0.0006596726080035045 0.00013692874030829974
5 -0.0016219254923427776 0.001225224431051057 0.0026158594747236795
36 -0.0010811945997543043 -0.0010188373999976367 0.0005551916562700972
37 -0.0007374791121411444 0.002979376637089949 -0.0005144888645126908
10 -0.0006903936957037535 -1.1536278450251113e-05 0.00013729674569219147
17 0.0007466342668240115 0.000681499459009873 0.0003788760803918109
22 -0.0004312280103300634 0.0016101453462943327 -0.0009914121511183382
40 -0.0036240824002389802 0.0006038380883508183 -0.0014164198502675234
1 0.002744954462307631 0.0023179842003259723 -0.0006156641558529061
7 -0.0013631740207744342 -0.000660712074656377 -0.0017805825416455476
25 0.002218611148881925 -0.0013931612429115866 0.001212405530338691
26 -0.00022997415009597287 -0.0019636418321464836 -0.0019462413098963465
18 0.0006601981686184756 -0.000943840945433717 0.002170922183062461
23 -0.0017556940267830783 -0.0008651171132907352 0.00013385734896932046
21 -0.0010216817158627692 -0.001042778602697777 0.0014696493915843539
28 -0.0031734922160048225 -0.0008275554304460237 -0.002843705858065998
2 0.0015042919459391135 -0.0028600259175996083 -0.00044818713593491676
11 0.00039164827254332436 0.0007211914347995189 0.0008429740419290391
29 -7.110533303403816e-05 -0.0008657428256627096 0.0009359164190641872
13 -0.00048695406883377966 -0.0009835793090599478 -0.0025561670319546553
19 0.0010850294598137933 0.00133189298916553 0.0005263110861385213
31 0.0022565503477077454 0.00405062433274189 0.0024232831709967216
32 -0.0008267064725853994 -0.002587074897070581 0.0014088257389140747
35 -0.001048590267349829 0.001208434371776672 0.0005359526875500511
4 -0.0003212383169503907 -0.0009102468196569369 -0.0015204623072790392
24 0.002574484546421168 -0.0012789448938022995 0.00041801700863118113
27 0.001159207128347657 -0.001171191741821269 0.0026296539348381605
34 -0.00015849110956747892 0.002592105745314451 -0.00256895742876692
15 0.000553682950065612 0.001128261893806215 -0.0003222634912937017
20 -0.00045216563695672313 -0.0009574349802193563 -0.0019267015713625864
38 -0.0019471615864038005 -0.0029452607925970226 -0.0022363805473650917
