LAMMPS data file via write_data, version 7 Feb 2024, timestep = 66, units = metal

46 atoms
3 atom types

0 2.2858575148342073 xlo xhi
0 2.2858575148342073 ylo yhi
0 48.00300781151835 zlo zhi
0 22.858575148342076 0 xy xz yz

Masses

1 28.085
2 50.9415
3 51.9961

Atoms # atomic

7 2 2.9725006782532226 0.9359268807071313 4.704273017584864 0 0 0
10 3 1.8710361045690693 2.202797158268707 3.580711284405299 1 0 0
15 3 2.016098191889566 0.3280387903799209 1.3852189049978079 0 0 0
16 3 4.061988060884072 1.9759829450940483 5.812171858821814 0 0 0
21 3 3.069653776777705 1.1847174402334082 2.495911104843426 0 0 0
6 2 6.116294641447417 1.0344652959594844 11.19868684138165 1 0 0
22 3 8.256481110689885 1.3534671435714665 13.409978372298898 0 0 0
27 1 7.1972801088067815 2.269096334756933 12.277321888522867 0 0 0
39 1 5.178898815809526 2.1242082374436513 10.086569866227546 1 0 0
40 1 4.503728013244288 0.8559569567580486 9.141258010905037 1 0 0
41 1 5.115477723711159 0.7803698375192383 6.981013116765057 0 0 0
46 1 6.052101642323206 1.9117489130010623 8.099154519772835 0 0 0
13 3 7.780789868053178 1.882978294808558 15.522213562923008 1 0 0
2 2 10.321676701048998 0.3342950392804667 21.3579275855749 1 1 0
14 3 8.733421564203086 0.6381791340639213 16.637608093336794 1 0 0
17 3 11.511716936347051 1.4635215700259538 19.826171929591254 0 0 0
29 1 6.8896815762180985 0.5787640876391431 14.421068857019543 1 1 0
34 1 9.704557732805895 1.585006556493126 17.69730296533379 0 0 0
45 1 10.630680715093666 0.32728176086947824 18.8410159397053 0 1 0
1 2 11.42507263983196 1.5483726640668412 23.0490443030907 1 0 0
11 3 12.974051015334583 1.8769295499085576 26.54110323114053 1 0 0
24 3 11.465073117860733 1.4176275624656545 23.049242203153653 1 0 0
25 3 12.594223394224699 0.31999348936495375 24.59512716069571 0 1 0
35 1 14.03122519428447 0.9042538929515563 25.290483564892586 0 1 0
42 1 10.322427223506665 0.3360364597513493 21.35630957052817 1 0 0
9 3 15.088731123399244 1.9973752410789232 28.898587523897806 0 0 0
20 3 14.049301805697965 0.7942541147368876 27.68960751504883 1 1 0
28 1 16.114203376238912 0.9796301735199918 30.01214937102635 1 1 0
33 1 17.064129706265195 0.03938235892522057 31.208922328353097 0 1 0
12 3 15.594483125405842 1.4597313972083292 32.08582246503688 1 1 0
4 2 16.61957602755753 0.3447517251402935 33.59296668726028 1 1 0
5 2 18.230445401225065 0.4173795667203137 37.18902372706707 1 1 0
8 2 18.219544055595637 0.38902074740253106 37.18454730838597 1 1 0
19 3 16.69304681344211 0.35805524005918865 33.60016847931791 1 1 0
26 3 19.269090191606292 1.5803044173640997 38.854406985715585 1 1 0
31 1 19.30231068739356 1.573698288000907 38.84391958275055 1 0 0
32 1 17.71628187118082 1.5116232704581614 35.2421850914821 1 1 0
38 1 20.326540036462053 0.4699137546639461 40.332561492971955 1 1 0
44 1 17.20653697327325 1.5243403930547557 35.564481848207436 1 1 0
3 2 22.660421709179705 0.7550369917599216 44.86818613231798 1 1 0
18 3 0.9515014001492966 1.7010630625452852 0.28895353972660154 1 1 1
23 3 22.536514539103244 0.6767995335785385 42.589688562351576 0 1 0
30 1 21.370876407881582 1.7341611685967129 41.376270397239004 1 1 0
36 1 21.457818812689908 1.8551831590317678 43.72178865795072 1 1 0
37 1 23.84364694095825 1.8967762382697861 45.99753808209693 0 0 0
43 1 22.705018283419108 0.6830897190713269 47.114114860040445 1 1 0

Velocities

7 -0.001418633944375292 -0.0006422337225630323 -0.001803655780566182
10 -0.0007267708419372501 2.0996506474115265e-05 0.0001425760327827534
15 0.0005290193166220948 0.0011754819633332599 -0.0003219073260909127
16 -0.0010448549357073803 -0.000843058540659691 4.5392755029520955e-05
21 -0.0010716552123234998 -0.0010304385446117384 0.0014987944909211305
6 -0.00027526130143014176 -0.0005363756741244957 -0.0009245985573942461
22 -0.00047171525720791924 0.0016651073719770014 -0.0010018065513462732
27 0.0011442718672216043 -0.0011609147736541035 0.002677435707146015
39 0.0020378687208466324 0.0018565619226974253 0.0020709109059889362
40 -0.0037158661557857545 0.0006426327469453284 -0.001433642438837735
41 7.366452162536465e-05 -0.0015255918909731648 8.632204448811018e-05
46 0.0009768896982995058 -0.0016620863640133675 0.0025877193864377135
13 -0.0005283366124881359 -0.0009702881530820403 -0.0025917008380268516
2 0.001494900829385716 -0.0028768818175055936 -0.00044985406434684916
14 0.0020401177521591754 0.0010772916890530017 0.0006101399459338288
17 0.0007250705958855363 0.0007215418278619643 0.0003904967781178365
29 -0.00010580683656695031 -0.0008505585046813478 0.0009564865460695291
34 -0.00019459655599789844 0.0026628439806107088 -0.0026046967257951194
45 0.0011601850809256052 0.0007721435906736653 -0.001965998263387537
1 0.0027554958725012225 0.002384318389432939 -0.0006200217758388795
11 0.0003643813843862639 0.0007618714963026173 0.0008620509535001004
24 0.0019181475467195377 -0.0008348047809824345 0.00029068889723160053
25 0.0016523999857101434 -0.0009200955512762255 0.0008838965199349798
35 -0.0010989960775261449 0.0012569424950979076 0.000550096983460273
42 -7.867942992107512e-05 0.00018695870313954272 0.0010517768491564265
9 0.00019095259565883783 0.0004723132223852803 0.0006771002468128296
20 -0.0004929892684655711 -0.0009437237885532403 -0.0019521223636505974
28 -0.003258036774122253 -0.0008117575894569948 -0.0028838592728284273
33 -0.0005371778932420356 0.0006993643059150726 0.00014466230372991076
12 -0.00017352125266595613 0.0008532734578141517 -0.0012323204326900297
4 -0.0003599584656236513 -0.0008957775013769012 -0.0015393564455493858
5 -0.001681542526003634 0.0012740023040432582 0.0026634196247599137
8 0.00011722246974823176 -0.0002442478142460526 -0.0005206290268690943
19 0.0010689024577085675 0.0013823846028886944 0.000540300479748171
26 -0.00017607490346748878 -0.001346100490787497 -0.0014748150322257238
31 0.0022592450405634927 0.004144795177931104 0.0024677493835002016
32 -0.0008735474900678803 -0.0025995455564735833 0.0014369936433507842
38 -0.002012003874360993 -0.0029634860789423075 -0.0022667766527545395
44 -0.0003437803467924489 0.0020976122022235578 -0.00034591864401005434
3 0.0011994483435167692 0.0002727536499656243 0.0032609399436043527
18 0.0006372458123472394 -0.0009299113515362212 0.0022113339552362536
23 -0.0013154023688435469 -0.0005257799308269742 7.849338890037766e-05
30 -0.001734938050267204 -0.00036141982483194523 -0.0016921735436613513
36 -0.0011321242322587276 -0.0010061127017238923 0.0005696450461148397
37 -0.0007828865997755372 0.003056336779880631 -0.0005172209987810202
43 -0.000891449202832927 -0.0017451485660698843 -0.00037388764255829546
