LAMMPS data file via write_data, version 7 Feb 2024, timestep = 58, units = metal

26 atoms
3 atom types

0 2.2858575148342073 xlo xhi
0 2.2858575148342073 ylo yhi
0 43.43129278184994 zlo zhi
0 38.85957775218152 38.85957775218152 xy xz yz

Masses

1 28.085
2 50.9415
3 51.9961

Atoms # atomic

1 2 3.4922975097281155 3.8740219895131704 3.8831520824125336 0 0 0
8 3 6.915865311879582 4.995939795584352 5.5642484843779725 0 0 0
18 1 2.356991351722236 2.732686006135683 2.2519937492785127 0 -1 0
6 3 8.055283207628896 8.390611612917715 7.249940240857759 0 0 0
5 3 10.34154045730311 10.177108935254514 10.986329463938464 0 1 0
9 3 15.67776946770686 15.048399561678076 14.976656811668034 0 0 0
20 1 9.193374456168117 9.040617893879183 9.20541268501412 0 0 0
10 3 12.230790312123206 13.834093830677471 13.107130497263983 1 0 0
7 3 17.38298317481652 16.3260400918334 17.446753927160202 0 1 0
14 1 19.62268024525254 20.848580608688444 21.059790655569536 0 0 0
23 1 18.51306192811473 17.452841657169277 19.262591944263534 1 1 0
12 3 24.011062910518984 22.79832934385294 24.740205972723945 1 1 0
21 1 20.57389027147588 21.879973824221707 22.92863787152676 2 1 0
13 3 25.20182373181437 23.856739358139215 26.381357160059363 1 2 0
15 1 26.418873592856325 27.235002129778046 28.022295787542344 1 1 0
25 1 27.675501582223216 28.365011476351235 29.602991746108763 1 1 0
11 3 30.230921397359037 30.664234051372862 32.47749092978031 1 1 0
19 1 28.945132340983246 29.51537181369789 31.10181670040694 1 0 0
22 1 31.5237211515383 31.829151082027245 33.783022617430966 1 1 0
24 1 32.79978809631549 33.01374349305882 35.138826254214216 1 1 0
26 1 34.05356435299764 34.22234677587042 36.581064375999034 1 1 0
2 2 35.29543281945922 35.47780047257458 38.035627908675316 1 1 0
3 2 37.71764562623322 37.96671534828779 40.940507236949834 1 1 0
4 3 1.2051755670664526 1.5541586186551495 0.6130227811286632 1 0 1
16 1 38.89999796312166 39.2048315439361 42.45985876966705 1 0 0
17 1 36.51501765525504 36.73200472691391 39.48649434931331 1 1 0

Velocities

1 0.0025941825029158765 0.0025060234465101505 -0.0005978500050404358
8 -6.571635564463897e-05 -0.00013733143877237304 -0.0004932984814770235
18 0.0006627047732170303 -0.0013085214269724613 0.003095225946240384
6 -0.0004573224711732743 -0.00042880605465578803 -0.0008963646723819842
5 -0.0018604590290051018 0.0013775236326592506 0.0026836301348961223
9 9.023175470892783e-06 0.0005786479031337991 0.0007096994233400858
20 -0.0008875184421486428 -0.001327466477332392 -0.0026153441389295895
10 -0.0009160777289043746 0.0001237031071909804 0.00017087823434988063
7 -0.0015981383524545623 -0.000534427387792687 -0.0017734561848799632
14 0.0025868749624112573 0.0014445454387598067 0.0008990384736838125
23 -0.002015534995934899 -0.0007542173524682062 0.00016983545293720626
12 -0.00035838063366534046 0.0009626706314291781 -0.001215070856111326
21 -0.0016812129534399813 -0.0014464038826905597 0.0021179113696558802
13 -0.0007160483108879424 -0.000875550368835355 -0.0025853791547216483
15 0.0005142620031783078 0.0015792225915897404 -0.00037935160944111557
25 0.0020550837512175917 -0.0012950581380525182 0.0012745212414548848
11 0.0001838461370776139 0.0008705339006974421 0.0008961369261997909
19 0.00125476226998555 0.001863008930028825 0.0008032471080929549
22 -0.0008583391442349332 0.0022507896736932045 -0.0013118970426814391
24 0.0024195814079416254 -0.0011780738624708668 0.0004608814563711259
26 -0.00045284072399678086 -0.0018793637911878756 -0.0019606724528349116
2 0.001323453690004817 -0.0027974709071780525 -0.0004263143360712489
3 0.001025626097638608 0.00037748409565194435 0.0033143102923005757
4 -0.0005418302391416915 -0.0007874042027056949 -0.0015097478648850194
16 -0.0016444538652698884 -0.001189394666507962 0.00012443483501175726
17 0.0007831646851741268 0.0009566012021635973 0.0005977773080863499
