LAMMPS data file via write_data, version 7 Feb 2024, timestep = 26, units = metal

23 atoms
2 atom types

0 2.2858575148342073 xlo xhi
0 2.2858575148342073 ylo yhi
0 32.002005207678906 zlo zhi
0 0 9.14343005933683 xy xz yz

Masses

1 28.085
2 51.9961

Atoms # atomic

1 2 1.1094336417613508 2.4247715430271564 2.843954945447347 0 0 0
10 2 2.1819465258179527 1.1487923323325617 1.4682445528224386 -1 0 0
11 2 0.0372763105495123 1.4116992691475732 4.200874913037254 1 1 0
14 1 1.2711671764877668 3.1608634057841014 5.797450323318974 0 0 0
7 2 1.0088159510409442 3.9942513210871073 10.859804811209244 0 1 0
8 2 1.7135143894567852 5.577971777078497 11.963301949758646 0 0 0
12 1 0.14896187705418362 2.769847581599381 7.413852564565835 1 0 0
19 1 0.4143121383996755 4.64940363325946 13.197744878904112 1 0 0
21 1 1.247210170373691 3.918305413045575 8.644588679234971 0 0 0
23 1 0.036085228066528544 5.057218667597407 9.781077060380955 1 0 0
4 2 1.4557569433218471 5.982432354301625 14.534146722565918 0 0 0
17 1 0.2842824237543555 4.970716375068935 15.837635728191474 1 1 0
18 1 1.4683375754329915 6.201330463077218 17.07221096394529 0 0 0
22 1 0.40384478446303257 7.375923026950298 18.31653798019531 1 0 0
6 2 0.5801117352397189 8.02845182063838 24.100621204609205 1 1 0
9 2 0.8691637163156796 7.2875613375516854 21.19756460653548 1 1 0
13 1 2.0217227557661026 6.180914406173709 19.8604932645943 0 1 0
15 1 1.6308313563238355 8.151073853016449 25.833843573571787 1 1 0
20 1 1.9380790164204855 8.420537545007742 22.50161357448074 0 0 0
2 2 2.0839606022130748 10.134652257800454 30.813332777304154 1 1 0
3 2 0.9823972931526319 2.19727499981447 0.10110875419051367 1 1 1
5 2 0.9240433137645993 8.97466796582738 29.4753293725845 1 1 0
16 1 0.6846918491154389 10.190809274268476 27.69728735326632 1 0 0

Velocities

1 0.0026511605924928808 0.002345663050315294 -0.0006552538148821412
10 -0.0008075226403216413 3.18983324025564e-07 0.00010282167713624457
11 0.0002848050951082541 0.0007419921251208993 0.0008230716953154425
14 0.002671238480300792 0.0013120395101028715 0.0008259532045639339
7 -0.0014848729182732234 -0.0006532664287545207 -0.0018280850690135062
8 3.6966093742315774e-05 -0.00025891284469577847 -0.0005567682002747321
12 -0.00034400639170742507 0.001006899502401999 -0.0016837013490532066
19 0.0013483254263543642 0.0017276130710691905 0.0007308233790498905
21 -0.0015673738018094946 -0.001558944767270906 0.002036408501890712
23 -0.0018993869991563287 -0.0008715385126772437 0.00010178609722541312
4 -0.0004358597228906916 -0.0009044961728272968 -0.0015661979321825138
17 0.0008799847186169568 0.0008274650413951127 0.0005267725640054576
18 0.0007603567089813023 -0.0014220145348537749 0.00300697369395525
22 -0.0007501828012750623 0.002112715781057273 -0.001369713477890185
6 -0.00035193556989600815 -0.0005483745219537596 -0.000957050795421894
9 0.00011118946982810922 0.0004521219072056433 0.0006379217393990563
13 -0.0008273079561818423 -0.0014770126368675858 -0.003535342374245613
15 0.0006129390923151015 0.0014457865756177465 -0.00044360825117299897
20 -0.000779160585462935 -0.0014408287497256313 -0.002664158901734393
2 0.0014020707053621331 -0.0028675194134324764 -0.0004866391842743942
3 0.001109314745197115 0.0002533700681281324 0.003190287275075895
5 -0.001745381994796508 0.0012454805600278303 0.0025982203843643937
16 -0.0015308685737849552 -0.001303710469898231 5.669901829259206e-05
