LAMMPS data file via write_data, version 7 Feb 2024, timestep = 48, units = metal

31 atoms
3 atom types

0 2.2858575148342073 xlo xhi
0 2.2858575148342073 ylo yhi
0 54.860580356020975 zlo zhi
0 20.572717633507864 22.858575148342076 xy xz yz

Masses

1 28.085
2 50.9415
3 51.9961

Atoms # atomic

2 2 3.8624218073605765 2.5412434473532026 5.97785066446055 0 0 0
16 1 1.1867857255867476 2.0096996316383158 2.1922430133979804 1 0 0
19 1 2.2013618002841486 0.2107138334724246 0.18096855242813267 0 1 0
31 1 2.6544076952952755 3.6491459197972604 4.20661731245465 0 0 0
6 3 4.0319490848781046 5.868384005666471 9.843607854235612 0 0 0
18 1 5.28083785449553 5.637103553890402 11.91364546637285 0 0 0
30 1 5.120461057773426 4.7186369766140155 8.062630838740425 0 0 0
5 3 6.626824046748348 8.001086749733933 14.056727408943372 0 0 0
21 1 6.614120271203636 8.093237675526558 17.582366592976097 1 1 0
1 2 7.782764880830333 6.892826207713901 15.828299067487958 0 1 0
15 1 9.409451243061334 9.393990741099424 19.52457041161202 0 1 0
8 3 8.196609949134272 10.631165161206027 21.23765201066997 1 0 0
23 1 10.789509319244424 12.076900618686604 26.318610911675602 0 1 0
24 1 9.64688824232881 10.877031244706759 24.745673613317166 1 1 0
26 1 10.82382435711286 9.665513137455125 23.13384658224698 1 1 0
9 3 14.389245459997126 15.597115970502088 33.849108223933385 0 0 0
12 1 13.129644451321093 14.450482138287224 29.410126720169334 0 0 0
13 1 13.222379917559302 14.451589083319 32.34473230473475 0 1 0
14 1 11.955080338300725 13.264491953707834 27.890299177390666 1 0 0
25 1 12.03825161528523 13.30323455758847 30.880567811034663 1 1 0
4 3 15.535573234819218 16.733123240404858 35.388350705296986 0 0 0
28 1 15.4945129137743 16.700204537829027 38.51205187202332 1 1 0
22 1 14.382097359615008 15.576504265058361 36.94482334263843 1 1 0
11 1 16.596322806691038 17.80464064445313 40.10019846501853 1 0 0
29 1 17.697446968948004 18.897183347610724 41.78036001697057 0 0 0
3 2 16.514077636743938 19.988547740503794 43.4655418684748 1 0 0
7 3 17.627535967789257 21.07965616059295 45.21517539544432 1 0 0
10 1 17.805234920120043 19.840103542104725 47.25319886741209 1 1 0
17 1 18.78407535835344 22.73474754532514 49.24226606412074 1 0 0
20 1 21.05782031977613 24.166154771714577 53.041754369940364 1 1 0
27 1 19.896766531543026 23.02636225547932 51.27872200082431 1 1 0

Velocities

2 0.0013111915776499404 -0.0026944379818236415 -0.00048729223035320744
16 -0.0015405414643353554 -0.0011493075947938002 4.189864900288811e-05
19 0.0012451889854122914 0.0017836140112880373 0.000694139782663004
31 0.0020515205769005124 0.004106622361241276 0.0023386419615553126
6 -0.0003998786375209818 -0.00041849114064861244 -0.0009389431158638761
18 0.0006763067359334612 -0.0012637713079231118 0.002896402374252087
30 -0.001817167806179926 -0.0002580102147848043 -0.0016905788169725973
5 -0.0017480914136484285 0.0013171323442811526 0.0025009178946000465
21 -0.0015758616703645497 -0.00139625655133393 0.0019573433845249174
1 0.002532179521408791 0.002401458640534338 -0.0006521133799234153
15 0.0005336745466623003 0.0015109360847965385 -0.00044216779275579784
8 -2.3601385518381948e-05 -0.0001384258833809307 -0.0005516543768099944
23 -0.0018970971527677485 -0.0007311646767760195 8.552212441554099e-05
24 0.0023644129375676045 -0.0011384299275035749 0.00036517554665747886
26 -0.00039557232195319535 -0.0018122688609904028 -0.0019615900844210618
9 4.8212573122564454e-05 0.0005495274671417186 0.0006042538887655142
12 -0.0003922068539869991 0.0010862960349080724 -0.0016420053525449691
13 -0.0008598196249575942 -0.0013169840776950644 -0.0034335389503611776
14 0.0025251580241671965 0.0013815306772584736 0.0007861815317083369
25 0.002014183022367321 -0.0012508350202686796 0.0011469665614326702
4 -0.000481078469298645 -0.0007630524750376147 -0.0015283162970974233
28 -0.0032924117309738672 -0.0006941986515309529 -0.002844822533865551
22 -0.0007851980841878771 0.002156215630158537 -0.0013382100634786729
11 0.000316697469519279 0.0009658369755370903 0.0011181761904093986
29 -0.000239222865342196 -0.0007317804665273518 0.0008748620471164712
3 0.0010250220221136887 0.00035623793033386596 0.0031069109756845063
7 -0.001496038906289967 -0.0005199780771637737 -0.001781702130574439
10 -0.001121336995385465 -1.0565531699748335e-05 0.00016997693125360284
17 0.0007920514162393462 0.0009126863226980747 0.0004967128052736387
20 -0.0008132352000524096 -0.0012819747812750604 -0.002590635579982535
27 0.0009715791558233447 -0.0010323855377238692 0.002541740073467526
