LAMMPS data file via write_data, version 7 Feb 2024, timestep = 65, units = metal

38 atoms
3 atom types

0 2.2858575148342073 xlo xhi
0 2.2858575148342073 ylo yhi
0 66.28986793019202 zlo zhi
0 45.717150296684146 43.43129278184994 xy xz yz

Masses

1 28.085
2 50.9415
3 51.9961

Atoms # atomic

4 3 2.4199709606601676 0.9652715501134383 1.3497746755507067 0 0 0
8 3 3.6710335089444284 3.3609107981676116 3.410159066569382 0 0 0
31 1 4.864565817720327 4.47621967234665 5.186096584188287 0 0 0
1 2 6.228211594262524 5.5409430674170945 7.027034346464873 0 0 0
2 2 7.4665053340717025 6.660086141045371 8.800273621462782 -1 0 0
21 1 8.652634573873858 7.8181803549884386 10.56573114953254 0 1 0
38 1 9.852075704454792 8.942512890267995 12.309839764577156 0 1 0
7 3 11.040599768356767 10.033233375238417 14.069561675368377 0 0 0
16 1 12.221822523280665 11.132581533607022 15.820786880055683 0 1 0
18 1 13.40645362217949 12.218076396715164 17.569420296441503 1 1 0
5 3 18.15414793010876 16.66800904673015 24.491683414401045 0 0 0
14 1 16.966483921950378 15.572345058087787 22.78707197187193 1 0 0
25 1 14.588613999799048 13.357546456349061 19.303256239412576 1 0 0
30 1 15.781355164501853 14.454996540002211 21.054378437172407 1 1 0
34 1 19.34568510866199 17.762106818324508 26.195095471356183 0 0 0
15 1 20.545485233358786 18.868379783373797 27.92831991873264 0 1 0
26 1 22.926956229064977 21.063819504321625 31.30027292122491 0 1 0
35 1 21.731643479064044 19.97276861901491 29.623799518554936 0 1 0
13 1 24.119897620638916 22.136236318194015 33.00794950018778 0 1 0
23 1 25.30606105204376 23.205246645243136 34.72117395964102 1 1 0
29 1 26.491388111434443 24.26700911807722 36.409251237685396 0 1 0
12 1 27.671861019689615 25.336607642671325 38.10050137986473 1 1 0
22 1 28.844318562360353 26.408584773630444 39.790752965534246 0 1 0
9 3 30.01148019947269 27.48280636523879 41.48583194246044 0 1 0
20 1 31.171784435745998 28.56861305386947 43.190852922600314 0 1 0
32 1 33.4833778657901 30.754393409347323 46.59108160895128 0 1 0
37 1 32.3285123302387 29.658569337952752 44.88922248715279 0 1 0
10 3 36.9619746193512 34.09632474226094 51.72555729448021 1 1 0
24 1 35.80482161838087 32.97105792673657 50.01154978766051 1 1 0
36 1 34.641039794218685 31.849937029497806 48.30264510097649 1 2 0
3 2 39.28997599822181 36.383023164896755 55.189919927214575 1 1 0
27 1 40.474339957838225 37.5478433879488 56.893150994753604 0 1 0
33 1 38.123186908813324 35.236131179891146 53.470598600685065 1 1 0
28 1 41.67347859333714 38.703267449256856 58.63062820656598 1 1 0
6 3 46.943423725988616 43.29084625605871 65.87077691729651 1 1 0
11 1 45.75039906016661 42.15926418691071 64.09782160558991 1 1 0
17 1 43.35500111991168 39.85280886028649 60.588348449910995 0 1 0
19 1 44.55460832128874 41.021353414259806 62.341590024124685 0 2 0

Velocities

4 -0.0003158730226511882 -0.0008130391870605552 -0.0014793208483400025
8 0.00014631881821509143 -0.00018197519612521732 -0.0004925934540155628
31 0.0022428269796886304 0.004106822499565511 0.0024274902674234302
1 0.002728439593451446 0.0023840853680363538 -0.0005940877872331045
2 0.0014948681525866667 -0.0027643295455359903 -0.00042756799152211036
21 -0.001421939055224685 -0.001452769062159607 0.0020422620287079366
38 -0.0019368584054400382 -0.0028490772558724398 -0.0022055408842145603
7 -0.0013412936380470526 -0.0005674596653664456 -0.0017353180752534068
16 -0.0013862548392864487 -0.0012032750506123257 0.00010707672702453552
18 0.0008534401901054212 -0.0013189184263339333 0.0029909989568127366
5 -0.0015959437975879942 0.001288584009096817 0.0025914386156171165
14 0.0027213457326859766 0.0013536460310489462 0.0008590301862892287
25 0.002205104624460385 -0.0013058488173481211 0.0012235334651581214
30 -0.0016657320911582787 -0.00030279196319385476 -0.0016432556451280544
34 -0.00015841117403526101 0.002656640156113046 -0.002536216903983428
15 0.0007093380340339491 0.0014843850902250724 -0.0003819785016423944
26 -0.00022948564927630842 -0.0018730687930976343 -0.0019170599536684017
35 -0.0010434229206559337 0.0012808772331431425 0.0005509469261544725
13 -0.0006985174832203061 -0.0013726796067088296 -0.003404178719024241
23 -0.0017464851892881274 -0.00078082275327132 0.0001511497858089257
29 -7.152485575994923e-05 -0.0007814448893494881 0.0009486246427519775
12 -0.00022608549681004875 0.0010553687015970254 -0.0015941815827607213
22 -0.0006231268931351429 0.0021363148841280844 -0.0012872553806004005
9 0.00021887289124073982 0.000513068199012177 0.0006752275977499639
20 -0.0006514529594091722 -0.0013373095046130335 -0.00255258838971537
32 -0.0008228073150412302 -0.0024929385917212047 0.0014188310231245831
37 -0.0007340899385302059 0.0030416975796022467 -0.0004934907688885997
10 -0.0006791771442670191 7.142644056375506e-05 0.00015216207525783882
24 0.0025589440078350755 -0.0011922852781243664 0.0004336853151571886
36 -0.0010758409011880998 -0.0009336644431437775 0.0005700759334804988
3 0.0012057493346991342 0.00031778662097290956 0.0032036770590911216
27 0.0011517556864320028 -0.001085147995266794 0.00263268150770479
33 -0.0004936485336501293 0.0007352519477024309 0.00015420362244015899
28 -0.0031561798742319627 -0.0007434757563106303 -0.0028093949933786326
6 -0.000233836345715963 -0.0004649268048694335 -0.0008838735893415816
11 0.0004901247919588837 0.0009336681916181761 0.001194446380680551
17 0.0009703777346464534 0.0008799697683530915 0.0005665781962605145
19 0.001428185337884372 0.0017598732343902146 0.0007660398553281964
