LAMMPS data file via write_data, version 7 Feb 2024, timestep = 22, units = metal

22 atoms
3 atom types

0 2.2858575148342073 xlo xhi
0 4.571715029668415 ylo yhi
0 25.144432663176282 zlo zhi
0 0 2.2858575148342073 xy xz yz

Masses

1 50.9415
2 51.9961
3 55.845

Atoms # atomic

1 3 2.2802293145978085 2.9187506068704714 4.811370871791571 0 0 0
2 3 1.820272943113885 3.8064103295749816 1.054876400924853 0 0 0
8 2 0.5015718049652063 1.9214618705884685 0.33109541582434393 1 0 0
9 2 2.1442822386944713 1.427803434275847 2.5542246268405915 0 0 0
12 2 1.2520421189944 4.9567678588904265 5.559677341661017 1 0 0
16 2 0.9655668935211893 3.9277684158312263 3.024560460129878 1 0 0
5 1 1.1939355295046203 5.211088119034441 9.528542458638004 1 0 0
6 1 0.15786375345139494 4.1892091891190235 7.5638262458848144 1 0 0
15 2 1.3805696527351992 1.9536056366098786 7.352264492296969 0 0 0
17 2 1.757743857584687 5.647445064862586 12.129543015358488 0 0 0
18 2 0.642798598278462 3.750489902176272 11.348306375165233 0 0 0
21 2 0.5866994397526337 2.7924777592603403 13.34035054634736 1 1 0
22 2 0.9144853869071338 2.9007912707542687 9.386883225165825 0 0 0
4 1 0.17252711582406277 4.80662404104203 16.033429083468903 0 0 0
13 2 0.7389807341418687 2.5176403922532695 15.635818740735637 1 1 0
19 2 1.71938883954904 3.777875288723898 18.107159290938803 0 1 0
3 1 1.3247115255627318 5.428797570979305 23.76429255203359 1 1 0
7 1 0.2132299429857503 6.1156412856776745 18.68086863889556 1 0 0
10 2 0.15490911660524018 5.390108329904584 21.733830357813147 2 1 0
11 2 2.184087759436485 2.5754130498515906 24.350689799152285 0 1 0
14 2 1.1841399851813703 3.560433375994946 22.68667086398623 0 1 0
20 2 1.443417859308257 2.4915346548982287 20.596594813097223 0 1 0

Velocities

1 0.0024681644207215766 0.0021693277379815743 -0.0005841513695069087
2 0.0012781096346217837 -0.0027974667303056772 -0.00042350588656081713
8 -2.1085041270767947e-05 -0.0003333305997611761 -0.0005048812128053485
9 5.2200910102888114e-05 0.0003687239415546961 0.0006747200589601299
12 -0.0003080574068677218 0.0007452779628627765 -0.0012126161204345106
16 -0.0011693131804028799 -0.0009314341348704792 5.031894251904452e-05
5 -0.0017986367951709852 0.0011611406282916958 0.0026380655207932173
6 -0.000408620722740061 -0.0006282983849408025 -0.0009084533789960396
15 0.00038635752649053 0.0010637597810932257 -0.0003127329188306862
17 0.0005801412622290752 0.0006150699506377692 0.00039143146707743687
18 0.0004933322666008898 -0.001017282399744239 0.0021912087073957614
21 -0.001195803483047217 -0.0011166468879060683 0.0014869105269662171
22 -0.0006028024776067412 0.0015477221462252594 -0.000984768379607682
4 -0.0004923382732989867 -0.0009835433442080368 -0.001516100932171972
13 -0.0006587689461245818 -0.001057192200231737 -0.002556273831955852
19 0.0009199963394330056 0.001268269369491991 0.0005395025280694977
3 0.0010490323219180648 0.00017147248983678375 0.0032286748756537435
7 -0.0015387690335472398 -0.0007329320714001836 -0.0017773433616281246
10 -0.0008549080706715725 -7.737281200434021e-05 0.00014637819132931135
11 0.00022362380869592205 0.000654933163165064 0.0008575316121618977
14 0.001879978486308726 0.0009667051827518773 0.0006085342258492237
20 -0.0006238304320844673 -0.0010309350810981549 -0.0019240927692857773
