LAMMPS data file via write_data, version 7 Feb 2024, timestep = 51, units = metal

52 atoms
3 atom types

0 4.571715029668415 xlo xhi
0 18.28686011867366 ylo yhi
0 4.571715029668415 zlo zhi
0 0 2.2858575148342073 xy xz yz

Masses

1 28.085
2 50.9415
3 51.9961

Atoms # atomic

13 3 1.71547637245353 2.7064299037180035 2.5164030975322333 0 0 0
15 3 4.083483013212004 4.278720883739601 3.8233932403497883 0 0 0
26 3 2.029912135251666 4.608880887759695 0.006668558749256507 0 0 1
27 3 1.9711063075419597 4.536423956086168 3.824454291566201 0 0 0
29 3 2.8348426854869264 4.60016471325429 1.9685586917682645 0 0 0
30 1 3.122313937978835 6.343317584274644 0.9341831275788985 0 0 0
33 1 0.7953862172565971 3.0021658291255116 0.6215392543415129 0 0 0
34 1 3.9250580496931677 2.7088308423040663 2.4596838348432253 0 0 0
36 1 0.855316227917283 2.9134608969472997 4.137248390803843 0 0 0
42 1 0.5622000058216281 4.574290887207789 2.0682432726311784 1 0 0
43 1 3.76289001254229 6.131687557090885 3.141919781993505 0 0 0
44 1 3.1190285862253004 3.014624741360201 0.7247331281098979 0 0 0
49 1 2.1148324608434383 1.2043817230424447 1.3206984820658556 0 0 0
51 1 1.5012874935138658 6.271707248095342 2.821967775729085 1 0 0
2 2 1.032127980451488 8.698651621640533 0.7291728867637937 1 0 0
5 2 0.7215650476717833 11.545716934348045 3.348623439510934 1 0 0
7 2 4.29223988389884 9.734111986137336 4.058342606675647 0 0 0
14 3 0.9124518599031217 8.27156764756539 3.261503339701751 1 0 0
16 3 0.06322303300405425 9.835496449007117 1.972194475708894 1 0 0
18 3 3.182235002876306 8.331734340140237 3.256740485881071 0 0 0
19 3 2.2682559402474074 12.842779488328896 2.8192998445596973 1 0 0
21 3 4.31146933805917 4.8267227141902165 0.164204571916061 0 0 1
23 3 2.2506948991778133 7.942400859078072 1.7187835127847648 0 0 0
24 3 3.392186047440535 11.35660253713749 2.731696626934463 0 0 0
25 3 3.3683825324443584 8.987172436204187 0.34311349135912633 0 0 0
35 1 2.329575633787923 10.168117810586136 1.9345654729171764 0 0 0
37 1 1.006781106260233 6.300421645244073 0.8187113127636774 1 0 0
38 1 4.525809209333928 13.38989498239578 0.06672855182878475 0 0 0
40 1 2.037743516824782 9.935541801433416 3.9195138356902 1 0 0
45 1 1.707154298009348 10.452854287492775 0.16029149235094586 1 0 0
46 1 3.955823801420595 13.064919787703053 4.531892453694437 0 0 0
47 1 0.715866636863741 11.818334301894522 1.3625770571358684 1 0 0
48 1 4.433198662033144 7.5514920958957354 1.8048948038218906 0 0 0
50 1 2.7205462851465616 12.304623083237287 0.8054913642245458 1 0 0
1 2 3.492177519515403 17.88081313301452 1.9076993307331078 1 0 0
3 2 3.720458388902055 17.195197039214438 3.553879136678781 0 0 0
4 2 4.298959890485733 13.265959200705293 2.344467818019983 0 0 0
6 2 1.344317244375423 14.079396747966653 1.5565415708230108 1 0 0
8 2 1.091731085223221 17.49185255097909 0.7345924479081158 1 0 0
9 2 3.2233721942335634 14.481606396653492 1.0779221732290227 1 0 0
10 2 1.0080874825858972 14.343713691377285 3.6704616254853235 1 0 0
11 3 3.709045285429004 16.40495984436525 0.45258970002987003 0 0 0
12 3 0.13949507978112521 19.329586502840044 3.338810350547231 1 0 0
17 3 3.0977366932449018 2.44623337852216 4.395642957180744 1 1 -1
20 3 1.1454333222102986 17.804710964190384 2.5471042155356343 1 0 0
22 3 0.16234777653336102 15.83616926717758 2.2409493453556437 1 0 0
28 3 2.4228251892893824 19.12645409099906 3.4687999041395576 1 0 0
31 1 3.212655872592889 14.75788435524863 3.284900879811635 1 0 0
32 1 2.3272003863685637 16.125786169305705 1.9249338554222972 1 0 0
39 1 1.8697671284311714 16.195138706983307 3.91894762626969 1 0 0
41 1 4.475455847612124 1.1502778684962016 1.3056345086230112 1 1 0
52 1 1.1167947587278613 15.490300957728639 0.14741252290671095 1 0 0

Velocities

13 -0.0005049306581512964 -0.0011092354179966786 -0.002566345266355594
15 0.0005718601306171764 0.0010759752878391339 -0.00025483153784623984
26 -0.0001461941598101317 -0.0014919554202265002 -0.0014289304047347348
27 0.0009102409140514763 -0.0008893183974743059 0.0020509151027356845
29 -2.5378688790276812e-05 -0.0006570326955935278 0.0007628731852808772
30 -0.0017337101808694655 -0.000489175711153902 -0.0016502841008087371
33 -0.0005139344471447779 0.0005911062917298022 0.00022031393197956297
34 -0.00016505625183461996 0.0025906759441414874 -0.002579580026624556
36 -0.0011198162699324876 -0.0011457184441256338 0.0006531081215111271
42 -4.700849687941545e-05 6.928235525615848e-05 0.0011441018069812481
43 -0.0008747174837646504 -0.0018983382473426725 -0.00030776728486233546
44 -0.0003169821334971116 0.0020150548540903094 -0.000279284198723907
49 -0.00030387971992307304 0.002280558582615505 -0.0019234271898944941
51 -0.00016845728005028041 7.78658186509017e-05 0.0001996464872539402
2 0.0015554951463689997 -0.003050873459884069 -0.00038513001673489447
5 -0.001679333213657622 0.0011763064936915755 0.0027853675792509866
7 -0.001411592208768369 -0.0007751511429930734 -0.0017638154505704422
14 0.002110733495310956 0.0009759802152427146 0.0006943473427768392
16 -0.0010309429094285448 -0.0009796672461604887 0.00011921974722785542
18 0.000682075896651224 -0.0010681164657238551 0.0023249722939217123
19 0.001121666659647098 0.0012866809266041757 0.0006232241837621575
21 -0.0010582357917987878 -0.0011704914111365665 0.0015993359110490163
23 -0.0013064631726677435 -0.0006565568581300084 0.00015292879133803455
24 0.0019865214016292 -0.0009712617772464803 0.00036902458509915703
25 0.0017158892351520104 -0.0010581202449495989 0.0009731357328862243
35 -0.0010860791991100258 0.001158933114846514 0.0006332007533059671
37 -0.0007641594325365305 0.002991401385816674 -0.0004537351973265689
38 -0.002015868647146563 -0.003139069561514316 -0.0022354487724533484
40 -0.00375104897711561 0.0005333319714188529 -0.0013870010334706955
45 0.0012146271142571578 0.0006652233050113729 -0.0019291418892039703
46 0.0010279626484876556 -0.001813749310347211 0.0027082759234624606
47 -0.0009675936985225611 0.0022729501556901515 0.00024598329150135975
48 0.0012292796539858206 0.0022796837623779505 -0.0022186779235498564
50 -0.0017804618923084447 0.002489336093259344 -0.0005717118859180783
1 0.0028392607104740105 0.0023070308793534224 -0.0005584255166093996
3 0.0012546120600367124 0.00015665426656983166 0.0033938706932167073
4 -0.0003334576162153103 -0.0010333552141671644 -0.0014946581293803995
6 -0.0002472036654618227 -0.0006673473577799489 -0.000868600608858185
8 0.00015249420155787101 -0.00036985000613180656 -0.00045720586709071387
9 0.00022877807452191738 0.00036092360654211273 0.0007706495660029991
10 -0.0007154381764363647 -0.00010342170712742768 0.00022069472259184672
11 0.0004041960507811527 0.0006547624031564857 0.0009508886313522095
12 -0.0001435935713184821 0.0007478443895731244 -0.0011819786036266018
17 0.0007715149543384526 0.0006136914503246183 0.0004706669969171322
20 -0.0004689336079593546 -0.0010821827839246586 -0.0019150109417989797
22 -0.0004472685671422353 0.0015746003160434412 -0.0009472277337628465
28 -0.002384660639041176 -0.0006279922065570501 -0.0021114281038802337
31 0.0023338884795745217 0.004099866326250417 0.0025861007972489566
32 -0.0008564867263840185 -0.002768439585869612 0.0015363991254598603
39 0.0021084431254039786 0.0017695739204918886 0.0021819681816853207
41 0.0001081356312552226 -0.0016747459839922174 0.00016090134248493638
52 0.00035538580388326914 -0.0003829860050595613 -0.0009832504172395807
