LAMMPS data file via write_data, version 7 Feb 2024, timestep = 26, units = metal

6 atoms
2 atom types

0 2.2858575148342073 xlo xhi
0 4.571715029668415 ylo yhi
0 6.857572544502622 zlo zhi
0 2.2858575148342073 0 xy xz yz

Masses

1 51.9961
2 55.845

Atoms # atomic

1 1 3.6538981080963993 2.910772162463615 5.5969238883775905 1 1 0
2 1 1.1982847955660465 1.8512685837709129 0.651860645573499 0 0 0
3 1 2.504862250806787 3.822290708409229 3.971531394133711 1 0 0
4 2 2.348999965953904 2.8818088262588772 2.1635384927762846 0 0 0
5 2 3.089386801874883 0.8865121946355545 2.633523811392564 1 1 0
6 2 2.301063501282397 4.5502693351544465 0.8090305029529072 1 0 0

Velocities

1 0.0015660815986665636 0.0016872113013114175 -0.0006942203983206634
2 0.0006941239657526676 -0.0019519777497499834 -0.0005765148467073131
3 0.0004897585340275739 0.00022663520113896704 0.0019902532657607628
4 -0.000578294729265471 -0.0005508589608198374 -0.001295116262679807
5 -0.001460374410483936 0.0008973415255941614 0.0015099897366049682
6 -0.0005217643504332396 -0.00031097936578220836 -0.000884801506118268
