LAMMPS data file via write_data, version 7 Feb 2024, timestep = 31, units = metal

9 atoms
2 atom types

0 2.2858575148342073 xlo xhi
0 6.857572544502622 ylo yhi
0 6.857572544502622 zlo zhi
2.2858575148342073 0 2.2858575148342073 xy xz yz

Masses

1 51.9961
2 55.845

Atoms # atomic

1 1 1.4991860445543237 2.461917790802292 0.33318553337541645 1 0 0
2 2 3.4219205277551517 7.309279580022089 3.1489960392113274 1 0 0
3 2 3.4105043281777965 6.933907045464483 1.0337289676101404 0 -1 0
4 2 1.165837811628542 2.361403993383027 4.218879389339805 0 0 0
5 2 2.288529672236198 7.568054826075104 4.9649288212309335 1 0 0
6 2 1.3024032782426815 4.346393756884135 3.5215757552266482 0 0 0
7 2 2.3264193106988604 5.688192006378115 2.3736916224946243 1 0 0
8 2 2.5795768496404072 3.715880004561022 1.8124165969434818 0 0 0
9 2 2.3796114892013405 3.885071043755996 5.3056042937061925 0 0 0

Velocities

1 0.002057920324201385 0.001995032947267816 -0.0005664752353557901
2 0.0009983099482155353 -0.002167271241517406 -0.00041884106051437306
3 0.0007677717464331845 0.00029035335691906606 0.002476649140767112
4 -0.00044901558425744194 -0.0006214381603019426 -0.0012689673306024631
5 -0.001480232539119561 0.0010716162512527546 0.0020104108573772207
6 -0.0003829273539560145 -0.00034100101749579703 -0.0007892787686667682
7 -0.0012750879742888183 -0.0004236008441969816 -0.0014751970844251142
8 -7.667674797413443e-05 -0.00011305698341928036 -0.0004740659557901875
9 -1.82276436642211e-05 0.00044686559856920084 0.00046672332899367594
