LAMMPS data file via write_data, version 7 Feb 2024, timestep = 28, units = metal

20 atoms
2 atom types

0 2.2858575148342073 xlo xhi
0 2.2858575148342073 ylo yhi
0 41.14543526701573 zlo zhi
0 20.572717633507864 2.2858575148342073 xy xz yz

Masses

1 28.085
2 51.9961

Atoms # atomic

8 1 1.759108001753206 0.22304358816669334 2.0036929442325677 0 0 0
18 1 2.756412694261195 1.9092264597111532 3.8656522418969925 0 0 0
3 2 6.4813750402137345 1.9382424582453814 9.474908879248524 0 0 0
5 2 6.467117955825155 1.803110068671113 11.639579379357667 0 0 0
13 1 5.890669233332604 1.0349888417014106 7.571181029881885 0 0 0
20 1 7.3896628404592075 1.9160244535940638 13.633108995481 1 0 0
7 1 11.069924694848272 1.73245590706973 20.13791833674236 1 1 0
11 1 9.931427185871508 2.8848665821653734 18.654670816379422 1 0 0
12 1 9.62002952880963 2.0652864650919334 16.719922189506654 0 0 0
17 1 8.485094789343226 0.9279910594245606 15.23313812977426 0 1 0
2 2 14.217246364957456 2.846587252112852 25.64423311285556 0 0 0
16 1 15.335729593798456 1.8690506221533691 27.27715661701603 0 1 0
9 1 16.584801084168202 2.62425852041115 30.89874148649281 1 1 0
14 1 16.574767282123148 3.7142420785784234 32.73583088977975 1 0 0
19 1 17.727996590999645 2.5206741380995195 34.15773868318439 1 1 0
1 2 20.07018746481064 4.286803149207057 37.2016678656941 1 0 0
4 2 20.08495843546657 4.179968944594499 39.94234238390478 2 1 0
6 1 0.6488276340067359 0.7344283076893807 0.21702455315964958 1 1 1
10 1 21.22848201933698 3.092119694847893 38.575143290704084 0 1 0
15 1 18.9095658034572 3.217880720058416 35.79823045816609 1 1 0

Velocities

8 -0.0001649286658220964 -0.0004595939490713899 -0.0007141079672442782
18 0.0005334608277457907 -0.0013881489255578908 0.002946190481447322
3 0.0008772460336310157 0.0002624003694778629 0.003126786686969707
5 -0.001935133693000758 0.00123980416684361 0.002543496386140535
13 -0.0010306688587596925 -0.0014423317551873573 -0.0034991446105969923
20 -0.0009832352076108908 -0.0014066842451723384 -0.0026408752533157364
7 -0.002204931935665571 -0.0009882192468871308 -0.0024182899134012645
11 0.00016729594479006278 0.0008821047425164679 0.0011355475328709286
12 -0.0005545315854953156 0.0010047597503124329 -0.0016749516561249073
17 0.000651315514137935 0.0008279851622011951 0.0005027549745795786
2 0.001165662283134476 -0.0028122261518033465 -0.0004956343168864858
16 -0.0017238001429632625 -0.0012715985581588502 3.964963261189542e-05
9 -6.543329954593308e-05 0.0004935378916810491 0.0008873566844969179
14 0.0024160163645069914 0.0013053764706174116 0.0007975006672899175
19 0.0011127137051065504 0.001714789716308952 0.0007037810126150354
1 0.0023962361041965103 0.0023236779415713006 -0.0006617494639321199
4 -0.0006450233154308709 -0.000878302072429036 -0.0015591900682870915
6 -0.0006862457428623367 -0.0008476131570417455 -0.0012506810190023338
10 -0.0012969536469367598 -0.00011209741847088405 0.0001700627604412791
15 0.00038822847761485387 0.0014371409170052846 -0.0004532412590961573
