LAMMPS data file via write_data, version 7 Feb 2024, timestep = 77, units = metal

41 atoms
3 atom types

0 2.2858575148342073 xlo xhi
0 2.2858575148342073 ylo yhi
0 70.86158295986043 zlo zhi
0 66.28986793019202 9.14343005933683 xy xz yz

Masses

1 28.085
2 50.9415
3 51.9961

Atoms # atomic

1 2 67.90394523813278 9.588114348357367 70.57333099092202 0 0 -1
3 2 3.812679748977094 0.42861765066703156 3.2008746169414115 0 1 0
9 2 2.6842912790472337 1.5658724984675236 1.4615660353482565 1 0 0
19 3 4.9465837137717585 1.5509600861417723 4.931452531482498 0 0 0
25 3 8.33397215584468 2.6794050283064847 6.647082585767873 -1 0 0
13 3 10.487885008417642 2.6394125684260112 10.038345152753223 0 0 0
20 3 11.56414960454228 3.7614346512093464 11.709761538925198 0 0 0
32 1 9.413338524132293 1.5071249894325138 8.34692595462701 -1 1 0
34 1 15.991320354970666 3.745145158953618 15.09894512452545 0 0 0
40 1 12.635322806869947 2.620607731045251 13.411240201720608 1 0 0
41 1 17.059615824617786 2.5903965894009255 16.760049997935475 0 1 0
2 2 25.789074044530153 4.732165130855988 26.787060698741183 0 0 0
7 2 22.543983878017166 3.655526388820851 21.782851034834703 0 1 0
10 2 19.192580774226524 4.822253879687162 20.10568167831488 2 0 0
11 2 23.61755379485604 4.780789321465308 23.448075702369113 0 0 0
22 3 24.698784511572935 3.617173785165471 25.114269704259577 0 1 0
27 1 18.12625276769906 3.7115853872843445 18.42164260326597 1 0 0
4 2 26.88332167259275 5.844492389336367 28.456541908088138 0 0 0
5 2 30.283141531869155 4.667651755600359 30.12145201317819 0 1 0
12 3 31.405925714657418 5.781485146439271 31.786745130428567 0 0 0
18 3 32.53766916055946 4.619663063474169 33.459582213278594 0 1 0
26 1 33.676548014467784 5.756325361981796 35.11580690264792 1 1 0
15 3 34.83488135018585 6.875132625629977 36.76772523025926 1 0 0
16 3 40.6108310364901 5.70120713794273 41.781614635361535 1 1 0
21 3 35.99466347331557 5.713480452711894 38.41727484107439 1 1 0
31 1 39.4432573367099 6.844994825005625 40.09990063004875 0 0 0
17 3 41.77852325334042 6.845506008264726 43.458734274429354 0 0 0
33 1 42.93399980199531 8.001494784887976 45.180852755092296 0 0 0
8 2 44.08190382819573 6.879786230727013 46.89531638861471 1 1 0
30 1 48.640629807939874 6.9569943193728 50.344942177105565 -1 1 0
36 1 49.759668821734074 8.167155059658262 52.09502629937782 0 1 0
38 1 47.50729685117051 8.053047703529254 48.618331361234574 0 1 0
29 1 53.49794601043858 8.457075018728439 55.87826420722912 1 1 0
35 1 52.40397497972433 7.248603232491849 54.12409812228195 1 1 0
14 3 58.651555707767805 9.736724497903644 61.29453271058725 1 1 0
23 3 54.185018525110166 9.69285516788122 57.814503969008705 2 0 0
24 3 59.71054651782921 9.643081625586458 63.31472399077798 1 1 0
37 1 57.556434319128904 8.573760667496446 59.565114809286975 1 1 0
6 2 64.18302099341979 9.642781263084123 66.83111153077068 1 1 0
28 1 64.58237234473323 10.779513583386848 68.81912209775794 1 1 0
39 1 63.09169465576855 8.50192596615686 65.07777611015143 1 2 0

Velocities

1 0.0026975032287026497 0.0023105992339821388 -0.0006007696981090837
3 0.001181013471195198 0.00025271459995302814 0.00318153038410966
9 0.00019930264746974042 0.00044819790898515153 0.0006711392194821249
19 0.0010537863171235736 0.0013341365638562153 0.0005300548964032131
25 0.001622450196769212 -0.0009098100416398985 0.0008649160532494194
13 -0.0005028478120568257 -0.0009587266493420073 -0.0025223248223612245
20 -0.0004683990666510243 -0.0009328376029136433 -0.0018990056836798751
32 -0.0008392827539711685 -0.002546565143066544 0.0014039523660504293
34 -0.00017759208052546573 0.002582044159896748 -0.002534990329245296
40 -0.003609344120249955 0.0006131906468845169 -0.0013937065325896158
41 8.384927584434642e-05 -0.0014999134801627172 8.761748085045174e-05
2 0.0014689549770326138 -0.00281685097393377 -0.00043492798265417916
7 -0.001370512044539646 -0.0006390120040498412 -0.0017543134115057808
10 -0.0007043009829344987 3.82501160369126e-06 0.0001448390286515094
11 0.0003700631148292808 0.0007333011294179367 0.0008532443321576954
22 -0.0004476658823668767 0.0016096719672101098 -0.0009728487579351727
27 0.001127239688840632 -0.001144507168394958 0.0026128599665493518
4 -0.00033875016699663583 -0.0008861102041298267 -0.0014967330824970733
5 -0.0016267369758310448 0.0012285095550196123 0.0025992002003899107
12 -0.0001570525526229266 0.0008184764589156805 -0.0011975025255802018
18 0.0006331032279137576 -0.0009193763050597167 0.002158607432766693
26 -0.00024837713553171696 -0.0019292194976224693 -0.0019183546293415896
15 0.000527628061377411 0.0011324937940548007 -0.00031023390072067473
16 -0.0010062352293024423 -0.0008347314625008582 4.772869397867976e-05
21 -0.0010323541904714733 -0.0010173479002779492 0.0014641821152065336
31 0.0022138680634713713 0.004026321259407336 0.0024085042793514154
17 0.0007186953336883538 0.0006900937046352679 0.00038405949785174997
33 -0.0005114643301623408 0.0006684799786706711 0.0001444746166014793
8 0.00012629989573606626 -0.00025114367589607474 -0.0005039037072086897
30 -0.0016787750814378133 -0.0003653369448099295 -0.001645665271098057
36 -0.0010912859696557086 -0.000993640467892365 0.0005586534665012576
38 -0.0019487973504027033 -0.002901253585665681 -0.0022056608453595054
29 -9.105956941581403e-05 -0.0008420407627687874 0.00093566069894934
35 -0.0010589999974078869 0.0012118834397829247 0.0005396023538311249
14 0.002000311419303564 0.0010367997085855471 0.0005981189067676395
23 -0.0012699048175564061 -0.0005255186954579785 7.99878449989054e-05
24 0.001881441935033371 -0.0008266875295371547 0.00028678892850012906
37 -0.0007509266408230215 0.002965533602622977 -0.0005005823178599756
6 -0.00025620617036614 -0.0005358450742379098 -0.0008976035421914342
28 -0.0031631536568829414 -0.0008042262426955809 -0.0028070560183518487
39 0.0019981195627656015 0.0017962593688077987 0.002021754212068157
