LAMMPS data file via write_data, version 7 Feb 2024, timestep = 43, units = metal

23 atoms
2 atom types

0 2.2858575148342073 xlo xhi
0 2.2858575148342073 ylo yhi
0 29.716147692844693 zlo zhi
0 13.715145089005246 13.715145089005246 xy xz yz

Masses

1 28.085
2 51.9961

Atoms # atomic

1 2 3.9194630811853006 2.74916491432276 5.847882454207742 0 1 0
5 2 2.5087675870699564 0.514436097584682 0.5267117587431058 -1 0 0
6 2 2.6222383241868896 2.4663241471959676 2.752878599886911 0 0 0
10 2 3.8024931722064723 3.3451205351126823 3.8015209922391695 0 0 0
11 2 1.435875847871131 1.5293828212548526 1.657608332096816 0 0 0
17 1 2.7086389273717426 4.178187747555443 4.834565858314951 0 0 0
23 1 5.148436192512726 3.6530888668372805 6.945662361307053 0 0 0
2 2 6.576290799382887 6.4746889008193 10.899073981554057 0 0 0
3 2 7.7329504796974815 7.508038223265857 12.29992684953454 0 0 0
13 1 4.100165970404239 4.593928767680595 8.196135797271182 1 0 0
21 1 5.39111418860853 5.486264752948351 9.548840244162854 0 0 0
20 1 8.61593210362814 8.53179457550374 13.879564226028872 0 0 0
4 2 7.399350101285283 9.083853775490294 15.65304692639559 1 0 0
9 2 9.51516972542597 9.266936824146626 18.827930839961315 1 1 0
15 1 8.331917422917 8.070944813638478 17.33858611496629 1 1 0
19 1 10.787524621553962 10.558723039930475 20.3710262232395 1 1 0
7 2 13.722800669843744 14.414659972743578 28.005630925780164 1 1 0
8 2 10.919602609591939 12.775217483246356 23.226157498665163 1 0 0
12 1 14.976252756132668 15.467804621478216 29.098622359475677 1 0 0
14 1 12.242390197972393 13.536305632251747 24.692417214931154 1 1 0
16 1 12.456760156456905 13.355798998660436 26.91659655063921 2 1 0
18 1 13.482255095964945 12.30155126628815 25.85581546757566 1 1 0
22 1 11.9930586695174 11.698790326428725 21.80923413365201 0 0 0

Velocities

1 0.0026511605924928808 0.002345663050315294 -0.0006552538148821412
5 -0.001745381994796508 0.0012454805600278303 0.0025982203843643937
6 -0.00035193556989600815 -0.0005483745219537596 -0.000957050795421894
10 -0.0008075226403216413 3.18983324025564e-07 0.00010282167713624457
11 0.0002848050951082541 0.0007419921251208993 0.0008230716953154425
17 0.0008799847186169568 0.0008274650413951127 0.0005267725640054576
23 -0.0018993869991563287 -0.0008715385126772437 0.00010178609722541312
2 0.0014020707053621331 -0.0028675194134324764 -0.0004866391842743942
3 0.001109314745197115 0.0002533700681281324 0.003190287275075895
13 -0.0008273079561818423 -0.0014770126368675858 -0.003535342374245613
21 -0.0015673738018094946 -0.001558944767270906 0.002036408501890712
20 -0.000779160585462935 -0.0014408287497256313 -0.002664158901734393
4 -0.0004358597228906916 -0.0009044961728272968 -0.0015661979321825138
9 0.00011118946982810922 0.0004521219072056433 0.0006379217393990563
15 0.0006129390923151015 0.0014457865756177465 -0.00044360825117299897
19 0.0013483254263543642 0.0017276130710691905 0.0007308233790498905
7 -0.0014848729182732234 -0.0006532664287545207 -0.0018280850690135062
8 3.6966093742315774e-05 -0.00025891284469577847 -0.0005567682002747321
12 -0.00034400639170742507 0.001006899502401999 -0.0016837013490532066
14 0.002671238480300792 0.0013120395101028715 0.0008259532045639339
16 -0.0015308685737849552 -0.001303710469898231 5.669901829259206e-05
18 0.0007603567089813023 -0.0014220145348537749 0.00300697369395525
22 -0.0007501828012750623 0.002112715781057273 -0.001369713477890185
