LAMMPS data file via write_data, version 7 Feb 2024, timestep = 55, units = metal

50 atoms
3 atom types

0 2.2858575148342073 xlo xhi
0 2.2858575148342073 ylo yhi
0 84.57672804886568 zlo zhi
0 43.43129278184994 16.001002603839453 xy xz yz

Masses

1 28.085
2 50.9415
3 51.9961

Atoms # atomic

4 2 1.3106823968584758 1.3888819239172325 1.5979051659842094 0 0 0
6 2 0.18702088419363347 0.3312408794728888 0.13951624967972484 1 0 0
32 1 4.728029474765142 2.3398316637817955 6.120415709479816 0 0 0
34 1 3.600637600043463 1.1977954850599155 4.4758483675077825 0 0 0
35 1 4.79033173063537 2.277477193432389 6.125329721926704 0 0 0
36 1 2.4498677723733664 2.4298803726417337 3.041245453077648 0 0 0
1 2 4.89032606881204 2.3024940258645348 9.398928240776147 0 1 0
2 2 5.939955474958868 3.441928082458956 7.83174316077426 0 0 0
27 1 6.175876735270918 3.4752404673588906 11.003633654101387 0 0 0
22 1 7.8312855120365255 2.4416955088287278 12.740836582842494 0 1 0
17 1 10.526071944477067 4.990834805363875 19.434960807618285 1 0 0
33 1 9.301232336433973 3.7670603358180257 17.739314338964547 0 0 0
40 1 10.352938355939253 4.8431557080104515 16.06681793869958 0 0 0
50 1 9.10870199208242 3.6424873883257276 14.39814586617951 -1 0 0
46 1 11.749426692533877 6.208444817710385 21.172077294667027 0 0 0
10 3 12.912602981462445 5.145115183425089 22.898474472227953 0 0 0
39 1 13.232196694897898 6.945062434312964 25.056788637013366 0 0 0
3 2 17.4264987180374 7.217826094105359 32.0608562848901 1 0 0
24 1 15.331604152532808 7.085153528827657 28.571188574896016 1 0 0
43 1 14.3033045765882 5.8659436032759915 26.805910685350437 0 0 0
48 1 16.36373486904249 6.0231609109606685 30.312860229479192 1 1 0
8 3 18.512346367135308 8.409233215125113 33.81422984326465 0 0 0
21 1 18.82249865320935 7.927443498786021 35.99195029939299 1 0 0
45 1 21.072552707170075 7.997143631770337 39.51103888091516 0 0 0
30 1 19.944469702058147 9.109649805377533 37.74424178299609 1 0 0
18 1 23.376642697886105 10.334396565172845 43.054508821114545 1 0 0
25 1 24.54943436377318 9.225537108516118 44.83203322020953 0 1 0
11 3 22.218610484509398 9.162783157755943 41.28251360024037 1 0 0
31 1 25.92937950069483 10.687928011533502 46.833403106045594 0 0 0
12 3 25.973929387952914 10.6846845649148 50.41241558229951 1 0 0
49 1 27.10296338254628 9.558472088541965 48.62501138664324 0 1 0
14 3 30.556701178446282 11.379865585007535 56.14813417597268 0 1 0
16 3 28.285452047621856 11.490436721507402 52.60296004149366 1 0 0
29 1 29.421109293582475 10.295115113787366 54.38162253167484 0 1 0
42 1 30.655846472259498 12.38181138127781 58.21335179788113 1 0 0
37 1 31.78379285423746 13.454473982490503 59.97701370946348 1 0 0
41 1 32.92099956593748 12.2446342202876 61.72456922505365 1 1 0
23 1 34.041681782484915 13.312416448971396 63.47562314237084 1 1 0
19 1 38.10851703549725 15.325547681728636 70.5220890231611 1 1 0
20 1 37.31003292368058 14.274127800541294 68.6980885537082 0 1 0
28 1 35.15680871059293 14.391857849131434 65.23365022319156 1 0 0
38 1 36.25144121232107 13.18412837500077 66.97486113852737 0 1 0
47 1 39.1724103754438 14.153465796783856 72.23085522229238 1 1 0
13 3 38.00177381776375 15.277401055224463 73.90626604234394 2 1 0
26 1 39.12400789558886 16.42187668017076 75.53753542525708 1 1 0
5 2 41.40187084101157 16.44328264041124 78.72606762565846 1 1 0
7 2 43.66230248711036 16.439007204143284 81.75519789435873 1 1 0
9 3 40.268889641552185 15.285880360793081 77.14199511271546 1 2 0
15 3 44.78267456686171 17.538932794438526 83.23936220368185 1 0 0
44 1 42.538228759290355 15.30545222241701 80.26356748136732 1 1 0

Velocities

4 -0.0003055719015578533 -0.0010458510183852735 -0.001456594173117917
6 -0.00022104570374083366 -0.0006871746655769565 -0.0008430772111443939
32 -0.0008181242153241007 -0.0027461799140539784 0.0015137479721313673
34 -0.00014054378500259293 0.0025055871697356818 -0.0025197839992229885
35 -0.0010431177210987043 0.0011025235818664266 0.0006286415670823993
36 -0.001076179004636385 -0.0011559635004207104 0.00064815017078375
1 0.0028035937025299306 0.0022276237994012754 -0.0005391152363443808
2 0.0015455432471676823 -0.00302295635497785 -0.0003692910187261582
27 0.0011956220508859867 -0.0013104530949549775 0.0027516861281876317
22 -0.0006144813314309937 0.001974936553425798 -0.001246038060260236
17 0.0010106448316691428 0.0006936605019270338 0.0006445830244016532
33 -0.00048243360098460306 0.0005460708981656472 0.0002240252819081812
40 -0.00365470548796944 0.0004894538552976171 -0.0013510935565574454
50 -0.0017235912341757992 0.0024062772574640406 -0.0005521354663819011
46 0.0010285777530506252 -0.0018106130399820838 0.002662150905328468
10 -0.0006716438447834367 -0.00013092757461954612 0.0002219432222258
39 0.0020874151249209694 0.0017009326411875523 0.0021463856342253972
3 0.0012506871501083833 0.00012032138176808502 0.003334012525860885
24 0.0026307346433763878 -0.001419716412035952 0.0005090530145067769
43 -0.0008359897923933004 -0.0018935075759326087 -0.00029347793977962
48 0.0012258621774974658 0.002200824472541451 -0.0021661111263796885
8 0.00017023327485243781 -0.0003893577180757009 -0.000435606847700506
21 -0.0014291451368455758 -0.0016853692411013563 0.002149550354124949
45 0.0012115031428004191 0.0006187032735121342 -0.0018823747885020148
30 -0.001677776006295173 -0.0005125719753055382 -0.0016091028006242998
18 0.0008913867763305264 -0.0015488624707817005 0.003117114035385675
25 0.002269873664730869 -0.001535533508233345 0.0013145749258110008
11 0.000417305824416593 0.0006084519139882359 0.0009399658390632992
31 0.002308344583074246 0.003984546958444547 0.002542423069137446
12 -0.00011951102345204784 0.0006996693750821651 -0.0011501779311218507
49 -0.00027658648012302304 0.002201681769254331 -0.0018767745603376483
14 0.0020896596164270407 0.0009232354118983649 0.000688563329184897
16 -0.0009890858664671075 -0.0009932384740961924 0.00012495611482857754
29 -5.193329301975597e-05 -0.001000723298984387 0.0010342108076463524
42 -2.4860644693854937e-05 3.469961725949494e-05 0.0011293087614617184
37 -0.0007276463295520413 0.002898285679861374 -0.0004365219689064867
41 0.00012717579132211763 -0.0016743940893361522 0.00016580278602742134
23 -0.0017601315703984963 -0.0010000888172263724 0.00022091084488633212
19 0.0014775371774565936 0.0015910247886251764 0.0008480028043225417
20 -0.0006433695006882862 -0.0015676185019584642 -0.0025364803610207188
28 -0.0031978002627541372 -0.0009620007057669579 -0.0027983830396788043
38 -0.001954282556174228 -0.0031093858004463152 -0.002182546038399282
47 -0.0009270056036407142 0.002194225746733035 0.00024918045847483676
13 -0.00047361016689355704 -0.0011202112658088381 -0.0025068143444444808
26 -0.00021302866344542477 -0.0021140094076769833 -0.0018883404869295618
5 -0.0016244882641443933 0.001119548954549988 0.002737698338116166
7 -0.0013621103794759445 -0.0007928190331073287 -0.0017203600038545313
9 0.00024422711224568553 0.00031947813105528646 0.0007553884666246144
15 0.0005816114249743193 0.0010212274831388865 -0.00024160254874202992
44 -0.0002894264392433281 0.0019414963460658219 -0.0002655653983557865
