LAMMPS data file via write_data, version 7 Feb 2024, timestep = 59, units = metal

26 atoms
3 atom types

0 2.2858575148342073 xlo xhi
0 2.2858575148342073 ylo yhi
0 45.717150296684146 zlo zhi
0 18.28686011867366 41.145435267015735 xy xz yz

Masses

1 28.085
2 50.9415
3 51.9961

Atoms # atomic

14 1 2.334611243020503 2.5598512973211673 2.188286055814313 0 0 0
20 1 3.4865105672714334 3.6953490909067743 3.9121057756376416 0 0 0
22 1 1.222805280740387 1.4339126856799211 0.4368289543326613 0 0 0
24 1 2.3970428899611873 7.128980994161237 5.639760221774749 1 0 0
7 3 3.6173077729143532 8.293645506545994 7.369581944141212 1 0 0
12 1 4.833272140762433 9.49550252483435 9.072954558728265 0 0 0
15 1 6.03057376272307 10.710560192328916 10.732830979052919 0 0 0
21 1 7.208665115956696 11.952042388958745 12.380704105011544 0 1 0
11 1 7.1124521631170365 13.363896840002855 14.29144406010818 0 1 0
17 1 8.202658767435413 14.620690237592669 15.935400820994106 0 1 0
23 1 9.116498913728337 16.549688286560972 17.75163385251938 0 1 0
5 3 7.8648738068650035 17.83038286533092 19.394233056051263 1 1 0
6 3 9.961302316218063 22.65932890406696 22.749383506047455 0 0 0
9 3 8.903252558246848 19.12497291672475 21.065285640758503 1 0 0
25 1 11.034886090345335 23.914832323617574 24.46410656725131 0 0 0
16 1 12.053236353988284 25.530108685363217 26.35407095913048 0 -1 0
3 3 13.095055692312291 27.075745787251083 28.251172606449718 1 0 0
1 2 13.041845102009969 29.29111479526738 31.71356391184974 1 1 0
10 3 14.201750652423978 28.210290581142367 29.974154572088576 0 1 0
2 2 16.54637350550718 34.874141963849574 36.9107606682015 0 0 0
13 1 15.373013084922873 33.768209361639954 35.193051228697044 1 1 0
19 1 17.726809404709684 35.98157019011502 38.63621903511623 0 0 0
26 1 14.196019622284863 30.38645033396578 33.46211714638674 1 2 0
4 3 17.293034123077554 40.36638002302871 42.66747116288201 1 0 0
8 3 18.409207737150457 41.467296355456675 44.38418065053566 1 1 0
18 1 17.28198948716619 37.02792607182315 40.628526714763034 1 1 0

Velocities

14 0.002574760055734721 0.0014752844141945642 0.0008551618729719542
20 -0.0009055934137752615 -0.0013014826833461798 -0.0026652494031206976
22 -0.000876364060933824 0.0022829117014902898 -0.0013595663397703646
24 0.0024071795215439497 -0.0011518337965016176 0.00041625322969828963
7 -0.0016174323399861404 -0.0005070831938945342 -0.001821917252544494
12 -0.0004666614586178995 0.0011674953543650546 -0.001676280075184153
15 0.0004985916822423504 0.0016101925957206452 -0.0004254211938021386
21 -0.0017006494493060865 -0.0014206241170276798 0.0020761256552599915
11 0.0002723879750935685 0.0010419139512594603 0.0012012741145995493
17 0.0007679556469034665 0.0009865031453445189 0.0005533839161235234
23 -0.0020355449965413996 -0.0007272501920007302 0.0001247079583686701
5 -0.0018802030082583825 0.001408147637141983 0.002642814869206441
6 -0.00047465947342517796 -0.00040128067517145944 -0.0009433211544187638
9 -7.513845310996699e-06 0.0006079014953803218 0.0006654980254892063
25 0.002042056596044832 -0.0012690187499569058 0.0012312887536637496
16 -0.0016638273036386152 -0.0011631740205408517 7.922945904059858e-05
3 0.0009992765864407617 0.00040742420579127116 0.0032400217481776015
1 0.002582080131784675 0.0025385833089696685 -0.0006442944072408986
10 -0.0009342016918754302 0.0001521762752837609 0.00012575252859574302
2 0.0013091714775669426 -0.0027740087970827003 -0.00047246448151685755
13 -0.0009541587726034703 -0.001337980698432149 -0.003543995995426262
19 0.0012403622224964428 0.0018944657486369917 0.0007592061843773087
26 -0.0004701700381428337 -0.0018543267362301332 -0.002009454676162258
4 -0.0005593122082200969 -0.000760493971825595 -0.0015577565604281364
8 -8.238158656508175e-05 -0.0001093060561393839 -0.0005395635332705203
18 0.0006472890948755586 -0.0012825051341533653 0.003055116742727074
