LAMMPS data file via write_data, version 7 Feb 2024, timestep = 20, units = metal

10 atoms
1 atom types

0 2.2858575148342073 xlo xhi
0 2.2858575148342073 ylo yhi
0 22.858575148342073 zlo zhi
0 0 2.2858575148342073 xy xz yz

Masses

1 55.845

Atoms # atomic

2 1 1.5798868656556517 1.3632031694616518 2.4073015655752825 0 0 0
5 1 1.1165454223582811 2.5003695913378854 3.977561113939334 0 0 0
10 1 0.03574214333434392 1.0017552564923884 5.413824117641596 0 1 0
3 1 0.10592401523319075 1.2187522931881025 9.989953469494406 0 1 0
6 1 1.2404820307117026 1.8740149067220255 8.380837974373538 0 0 0
8 1 0.37801755924906305 2.7555176829390557 14.028764811983674 0 1 0
9 1 1.5206947766751524 1.6179514328422937 14.010458576323499 0 1 0
1 1 0.0850959808396274 2.2601349023944772 16.420294268114738 1 1 0
4 1 1.7662833278096044 3.6891288917946476 18.141990056087717 0 0 0
7 1 1.357574335380462 2.5664161152608216 19.78666417682496 0 1 0

Velocities

2 0.0011219160179287498 -0.0022992352227215575 -0.0004430817731426093
5 -0.0014868957546433205 0.0011098843967126068 0.002113848775485122
10 -0.0007095374404587885 7.781418326807817e-05 4.5501402274463235e-05
3 0.0008792609987347698 0.0002875592412528457 0.0026045919960458173
6 -0.0003319174963375928 -0.0003769783783581451 -0.0008329892526273168
8 -9.57071780732758e-06 -0.0001370538732810659 -0.0005012092241226846
9 5.195040285094392e-05 0.0004522975826994465 0.0004890268417083614
1 0.0021572422683861967 0.002021786593843298 -0.0005828404527044054
4 -0.00040147924648705006 -0.0006721549683732571 -0.0013378896825939294
7 -0.0012709690321665798 -0.00046391955504225063 -0.0015549586303228182
