LAMMPS data file via write_data, version 7 Feb 2024, timestep = 42, units = metal

30 atoms
4 atom types

0 4.571715029668415 xlo xhi
0 11.429287574171036 ylo yhi
0 6.857572544502622 zlo zhi
0 0 4.571715029668415 xy xz yz

Masses

1 51.9961
2 55.845
3 28.085
4 50.9415

Atoms # atomic

1 3 0.4097000930593502 3.2672602352068427 3.891820489953846 1 0 0
2 3 4.569239859300179 0.735518724333008 0.5407273793057864 0 0 0
3 4 1.2684802767400323 2.7094229137955614 0.5160820138208921 1 0 0
4 4 2.347844139418444 3.542911473015958 2.435472447286223 0 0 0
10 1 3.020472161371998 6.344312951313003 6.002781432130095 1 0 0
11 1 3.974003640706861 7.083277189760965 3.806285646612413 1 0 0
13 1 2.393472761441802 7.031470239263365 2.0104411152279593 1 0 0
14 1 3.9854001238699013 4.991597156933524 1.1037843122866624 0 0 0
15 1 3.4052518032799286 12.916426504050204 2.46057079901974 0 -1 0
18 1 0.5189104836534105 5.3765871180882945 5.1367665871681245 1 0 0
19 1 0.884780061114493 5.422240691358402 2.879898928704542 1 0 0
21 1 4.37706704102718 8.331887011038006 5.826509529087886 1 0 0
24 1 1.7342409573425484 5.071081844353385 0.701200308509054 1 0 0
25 1 2.903271920069241 4.987791626108825 4.137871479229963 1 0 0
5 1 2.2873802805998262 11.594343841934828 0.7773208481555532 1 0 0
6 1 1.1208431321113688 12.863557950878752 2.4972246956514565 2 0 0
7 1 0.9936549947142188 10.42475785478528 5.555818338616714 2 0 0
8 1 3.10304186805896 14.391772553698178 5.393036359978788 1 0 0
9 1 4.448150383434391 11.278547542610582 3.772628163767806 1 0 0
12 1 2.0940026352873713 8.368383108268691 5.46329013762917 1 0 0
16 1 0.8239994878275246 14.74201884253878 6.342115985548811 2 0 0
17 1 1.8655013038419106 9.390489875012214 1.546780058392458 1 0 0
20 1 0.0821070632976155 12.575567230346326 5.7823033524295955 2 0 0
22 1 2.3828326578023917 12.478339014091917 6.654889062767967 2 0 0
23 1 0.7474158578413207 9.017324791541638 3.609357466504274 2 0 0
26 2 3.2934416508638362 10.446593810389226 5.798015996866194 1 0 0
27 2 2.232846208895827 12.043904865718577 4.353973520938906 2 0 0
28 2 3.040622683366101 9.380717818352155 3.6174562827529684 1 0 0
29 2 0.024226412874830728 7.804189070490897 1.3537012419450554 1 0 0
30 2 4.1669123764323 10.156329646385197 1.6619320228638246 1 0 0

Velocities

1 0.0036771107621223864 0.0032185118170082105 -0.0007764804846448803
2 0.001969054303355808 -0.00391020651597512 -0.0005459099614028198
3 0.0011769999475034713 0.0003923932463743461 0.0033107507553437783
4 -0.0003918716574635575 -0.0007832302869557796 -0.0015186809594762553
10 -0.0007609103958964771 0.0001391080667430239 0.00017345998236152274
11 0.00033686456221028064 0.0008844797860141993 0.0008973017451287058
13 -0.0005612717729204541 -0.0008581931799241753 -0.0025774125401817664
14 0.002022771786290364 0.0012018144168101745 0.0006438617675469675
15 0.0005025017618629225 0.0013006006554614833 -0.00029384255116934497
18 0.0006113851366519931 -0.0008175713119976512 0.0022547741994495794
19 0.0010456617154338988 0.001508759087429712 0.0005735984117872666
21 -0.001107888036704762 -0.0009187086533371779 0.0015379099877313967
24 0.0019000612845504609 -0.0007218874935655148 0.00032247181558047236
25 0.0016327007727756665 -0.0008076959348877976 0.0009192799028956293
5 -0.0017034466697405958 0.001390479018304741 0.0026813027500899545
6 -0.0003030514027311627 -0.00041232166467610343 -0.0008916978648875998
7 -0.0014416384859044244 -0.0005177366466994482 -0.0017670758143683585
8 8.778963669386734e-05 -0.00012141649920364255 -0.0004894191394960834
9 0.0001623831500967442 0.0005931640425728943 0.0007112284829501281
12 -0.00020430286668743586 0.0009764365103360457 -0.0012097813962231878
16 -0.0010809250962187781 -0.0007301913493111538 7.568685218729063e-05
17 0.0006997429713734921 0.0008439053372665038 0.00042288547887636403
20 -0.0005257098887328564 -0.0008314675833903238 -0.0019339521540172717
22 -0.0005043067551885848 0.0017931978380497588 -0.0009778684143949847
23 -0.0013531146128709568 -0.0004109870217987304 0.00010898838985020635
26 -0.0001979530692520116 -0.0011756225404653954 -0.0014051027223202827
27 0.0008091035738331266 -0.0006011531460394122 0.001912092647195755
28 -0.0023317922364740665 -0.0003520415034153311 -0.0020557000555784877
29 -8.278458830289911e-05 -0.0003797246219771983 0.0006842546080784493
30 -0.001245113679792903 -3.0740996483553795e-05 -0.0012054732725692082
