LAMMPS data file via write_data, version 7 Feb 2024, timestep = 13, units = metal

5 atoms
2 atom types

0 2.2858575148342073 xlo xhi
0 2.2858575148342073 ylo yhi
0 11.429287574171036 zlo zhi

Masses

1 51.9961
2 55.845

Atoms # atomic

1 1 1.4443671259011475 1.1907482691502398 10.718867520130932 0 1 0
2 1 2.249193772375072 1.8626131183675891 8.934988199731263 0 1 0
3 1 1.540496995002957 1.0498968968634965 5.045409649954706 0 0 0
4 1 1.521302545874044 1.7122544056930233 7.0556227607278625 0 0 0
5 2 0.40526031311539557 1.403997266811838 1.513783328766027 0 0 0

Velocities

1 0.0013407136898494797 0.0014980942429107884 -0.000826562371882295
2 0.0005340807243866147 -0.0018684567743993844 -0.0007176749964348979
3 0.00034502578867875864 0.00014694048670228042 0.0016567979092000664
4 -0.0006528116577633223 -0.000600782386706473 -0.001414828726673491
5 -0.0014590085596661022 0.0007673993381742712 0.0012125144026356434
