LAMMPS data file via write_data, version 7 Feb 2024, timestep = 29, units = metal

14 atoms
2 atom types

0 2.2858575148342073 xlo xhi
0 2.2858575148342073 ylo yhi
0 25.144432663176282 zlo zhi
0 0 6.857572544502622 xy xz yz

Masses

1 28.085
2 51.9961

Atoms # atomic

4 2 0.765268221967796 1.4999330615137005 4.931540595962812 0 1 0
10 1 1.928549663283064 1.6565447278444614 3.0615551173751006 0 0 0
11 1 0.44400499939473187 0.5255530452617707 1.334442974789819 0 1 0
12 1 1.7781020559119949 2.7185031245055526 6.524558047002408 0 0 0
1 2 0.7033669306541184 3.4847540631635234 10.734092705169598 0 1 0
8 1 0.5215661444509909 4.650936939928899 13.657805841348605 0 1 0
9 1 1.6809561567218214 4.100001284570107 8.634494314783796 0 0 0
13 1 1.6624568111149114 5.790831019208454 15.12131029753939 0 0 0
2 2 1.9608492062175678 5.773709469765478 18.787336038507156 0 1 0
3 2 2.233816676120499 6.843542419452513 16.978194668616485 0 0 0
5 2 0.8149791092350595 6.955246025873377 20.173243454295342 0 1 0
6 1 1.735487587486965 6.78159794307895 24.64169707101443 0 1 0
7 1 1.9130879735060982 5.885862170891288 21.56154448261077 -1 1 0
14 1 0.7140902188312525 7.102363656457932 22.91184210250463 0 1 0

Velocities

4 -0.0005979912559827334 -0.0008171744718321501 -0.001387220640257984
10 -0.001201293819946613 -0.00010812135692912798 0.00021304646635721762
11 0.00015373675660491925 0.0008119228315911623 0.0011065153088475276
12 -0.000514249343619887 0.0009254289489018691 -0.0014943475208094117
1 0.0022164192981363098 0.002145968457482611 -0.0005567205216916221
8 -0.00015370707551628455 -0.00042969796987115717 -0.0006051735814235901
9 -6.163311197131262e-05 0.000452339351499224 0.0008768371240167323
13 -0.0009548713301681144 -0.0013391329347461514 -0.003182473127813652
2 0.0010776345146784353 -0.0026068463113107037 -0.00040299597585805757
3 0.000810731358918897 0.00023844247780823387 0.002949227066648612
5 -0.0017918717382521662 0.0011429412999702784 0.002409444643559553
6 -0.0006361388845871153 -0.0007887746560180034 -0.0011017234154093928
7 -0.002041545612416986 -0.0009188928763448794 -0.0021822398535244415
14 0.002234724140209881 0.0012036225370288054 0.0007936835062929707
