LAMMPS data file via write_data, version 7 Feb 2024, timestep = 32, units = metal

21 atoms
4 atom types

0 2.2858575148342073 xlo xhi
0 2.2858575148342073 ylo yhi
0 48.00300781151835 zlo zhi
0 4.571715029668415 0 xy xz yz

Masses

1 51.9961
2 55.845
3 28.085
4 50.9415

Atoms # atomic

1 3 2.24792510723748 0.7705059850231837 3.7684707356940423 0 0 0
4 1 1.107013611776591 1.9533983366070748 5.619528477608063 0 0 0
13 2 1.159000178177448 1.9515107060371364 1.885766861687733 0 0 0
7 1 2.8594346652222122 0.8122375177623018 9.500124250923905 0 0 0
17 2 1.875178694021721 1.26563546188739 11.686032852767317 0 0 0
6 1 1.526280228408738 2.2460721044004517 15.876830038772635 1 0 0
10 2 2.9390864774617 0.011825109113154613 13.617850269598344 0 1 0
12 2 2.693114044018828 1.0647412604375865 17.691003661940897 1 0 0
16 2 3.8334682512466642 2.214688604341582 19.513948742017774 0 -1 0
3 1 3.9247548019907965 1.4770625131286068 21.988189123139552 0 0 0
5 1 4.58494985552711 2.0260485843258746 26.300309907143088 0 0 0
21 2 2.7796801820892667 0.12631174992012986 23.950456317274224 1 0 0
14 2 4.9668457508841986 0.7942509259293795 33.22063220846228 0 0 0
15 2 4.965811535854069 0.05202190592172899 29.30506397067379 0 1 0
20 2 3.8228921049249696 1.931718228657243 31.406409563867165 1 0 0
8 2 4.2580362555234865 1.5315718607213331 37.953579520943144 1 0 0
9 2 4.330453330182525 0.46393598337271064 35.56852286512916 1 0 0
18 2 5.420037204839737 1.8645866910494058 40.08438952352771 1 0 0
2 4 6.063983610161696 2.0121130591625596 42.57394735324374 1 0 0
11 2 4.587898988453781 0.4437686755888296 47.86559760933772 1 0 0
19 2 5.725696545231687 1.5783531531758355 46.06065872277032 1 0 0

Velocities

1 0.0035081209050979363 0.0030321283415220405 -0.0008396597337095782
4 -0.00047296325375752006 -0.0008747372229217905 -0.0015521326054449866
13 -0.0006223606735883806 -0.0009144764025207522 -0.002517378011860971
7 -0.0015055701573234942 -0.000627436646291712 -0.0018099238959999127
17 0.0005694495772978912 0.0006942109423223043 0.000318263641821175
6 -0.0003903516525501247 -0.0005241852214598559 -0.0009525123704706412
10 -0.0008110431282640899 2.8092948375403066e-05 8.252661739389214e-05
12 -0.0002849822221299253 0.0008194688041680843 -0.0012248024696822157
16 -0.0011134954207564858 -0.0007934993128022466 -9.880723067564775e-06
3 0.001048045090069382 0.0002650202930745323 0.003129962418091315
5 -0.0017620049400732438 0.001241614436546945 0.0025471552985883088
21 -0.0011389786349779221 -0.0009716707865493342 0.0013720956018803893
14 0.0018198705664027473 0.0010324779703769615 0.0005271127510263871
15 0.00038303296602858845 0.0011258428199188658 -0.00035913035152525203
20 -0.0005887504257245936 -0.0008892175068145572 -0.0019092307338531565
8 -8.919756316502096e-06 -0.00021813402851596003 -0.0005439736960268902
9 6.15800648199651e-05 0.00045723033072472905 0.0005907823808616664
18 0.0004859408208430575 -0.0008760838628426481 0.0020496183032486463
2 0.0013504678437340613 -0.0028397024915843465 -0.0004930089205012025
11 0.00022648593644992554 0.0007325586651862733 0.0007666439417861148
19 0.0008963842995209297 0.0013225775164406367 0.00046070544846707603
