LAMMPS data file via write_data, version 7 Feb 2024, timestep = 20, units = metal

8 atoms
2 atom types

0 2.2858575148342073 xlo xhi
0 2.2858575148342073 ylo yhi
0 18.28686011867366 zlo zhi
0 4.571715029668415 2.2858575148342073 xy xz yz

Masses

1 51.9961
2 55.845

Atoms # atomic

4 1 1.3660896275325927 0.7234062463236264 3.2510324714487453 0 1 0
5 1 0.8843453757878 0.3274198933589493 1.127727262606363 0 0 0
1 1 3.4265362812105136 2.6656292526780607 11.90081804360617 1 1 0
2 1 3.1729146486252384 2.4896822478747693 8.246047018234066 1 0 0
6 2 3.063348286517142 1.4722336972524315 10.097234486446439 1 1 0
3 1 5.360609293110736 3.809762503118662 13.77344892448534 0 0 0
7 2 6.189624706899105 2.8712439180467886 15.835095056389287 0 1 0
8 2 5.058427213788438 4.0801809169904795 17.311532676362432 1 0 0

Velocities

4 -0.00043889608117259396 -0.0005636907342244996 -0.00116548017434452
5 -0.0014444809107704024 0.0010872807940420087 0.002032385164077155
1 0.0019316331296763125 0.0019321131773905687 -0.00046596432446479815
2 0.0009724544518866633 -0.0020711002936111074 -0.000336484804929308
6 -0.00036505794944608193 -0.00026595449205518284 -0.0006756090687605848
3 0.0007476465516072433 0.0003254371191824576 0.0024870345397919732
7 -0.0012045275141382382 -0.0003436759684173932 -0.0013210170108072104
8 -7.689452121225567e-05 -5.1472845253727834e-05 -0.0003790127420675452
