LAMMPS data file via write_data, version 7 Feb 2024, timestep = 48, units = metal

30 atoms
3 atom types

0 2.2858575148342073 xlo xhi
0 2.2858575148342073 ylo yhi
0 38.85957775218152 zlo zhi
0 13.715145089005246 9.14343005933683 xy xz yz

Masses

1 28.085
2 50.9415
3 51.9961

Atoms # atomic

1 2 1.0658318967561704 2.639825859953732 1.8879673789756406 0 -1 0
6 3 2.210386249234833 1.426571946044205 0.5150127034369512 -1 0 0
12 3 3.1795086663649994 2.608515115153012 4.715620437707201 0 0 0
18 1 2.147168180335413 1.5142050781079286 3.293820499906163 0 0 0
19 1 4.172505359098725 3.6978980537947006 6.165152839108951 0 0 0
4 3 4.947886282750666 3.7970725560241942 7.867581333043553 0 0 0
13 3 3.8565834205688323 2.6612310857720614 9.405242728713237 1 1 0
22 1 5.144455585652583 3.8624734872797006 10.901078086182604 0 0 0
2 2 6.253389642602702 5.2316363194488 15.477539495663526 1 0 0
10 3 8.450687430453595 5.228209146275836 18.32477875343778 0 1 0
16 3 5.183604840969572 4.02899635626361 13.842080880065476 1 0 0
20 1 7.387167120830356 4.076377195113216 17.046658809945278 1 1 0
24 1 6.3822373457327 5.081370841553234 12.393209715223891 0 0 0
26 1 6.314025320100377 5.173578392067519 15.464359849775335 1 1 0
5 3 7.269953331044228 6.3463322248985445 19.652025356056875 1 0 0
7 3 8.421766980246872 5.158155742712667 20.94903173419822 1 1 0
9 3 9.59700389094297 5.966241615660631 25.22472824969558 1 1 0
15 3 9.594931811085475 5.959714498901262 25.225084696594955 1 1 0
17 1 8.444116915895686 7.1793764826428825 23.60267998032702 1 0 0
29 1 9.586090794354604 6.202138812990665 22.267414248049036 0 1 0
8 3 12.064052955874391 7.933523570775374 28.180851481170937 0 1 0
11 3 11.138295000074724 8.87545893972384 29.4652420266212 1 0 0
21 1 11.724616499471228 8.844909315971407 32.189049244474276 1 1 0
27 1 10.777129009042884 7.0209860525651315 26.860351729742725 1 1 0
30 1 12.546842102529892 7.673652915043629 30.820188290014297 1 1 0
3 2 13.572420185062928 10.325294486279715 36.4342454052051 1 1 0
14 3 12.336858455244073 9.176396274051054 34.87673219346652 1 1 0
23 1 13.525720515632706 10.461428002392706 36.47693523600391 1 1 0
25 1 14.733824936673658 9.309430274251213 38.04567167843918 1 1 0
28 1 13.217654286186402 10.129547367934752 33.582051533320325 0 1 0

Velocities

1 0.0026777804262636514 0.0025235223660930767 -0.0005779512990083305
6 -0.00035514283503834465 -0.0003934359012610234 -0.0008746482030303385
12 -0.0002568034900129127 0.000989567582141856 -0.0011914136700248775
18 0.0007580641600829047 -0.0012677943698460507 0.0030926361827433397
19 0.0013465164055240138 0.0018844233965843705 0.0008146140291978775
4 -0.0004391360047721181 -0.0007498504160382831 -0.0014842962843641836
13 -0.0006122931999348443 -0.0008374598284165261 -0.0025533776678882437
22 -0.0007537175731515225 0.0022698428036412904 -0.0012876502470730012
2 0.0014147895387475594 -0.002747677100421315 -0.0004074601725060912
10 -0.0008111045667843526 0.00015570883331301116 0.0001860958772747596
16 -0.0011297932004494604 -0.0007099884076861279 8.872789626324669e-05
20 -0.0007827191878113074 -0.0012866240569712774 -0.00258316018451545
24 0.0025042425402393054 -0.0011381411475454145 0.00047433316523241815
26 -0.00035068837883451073 -0.0018351606693168033 -0.0019324750300974982
5 -0.0017497351890297143 0.0014018943940380744 0.0026835467265306405
7 -0.0014890118775535179 -0.0004984140680609145 -0.0017463987894240913
9 0.00010836306500895877 0.0006078833065449046 0.0007216359899886799
15 0.0004470723041741296 0.001312388466273735 -0.0002792702629969455
17 0.0008777905482524409 0.0009835351118169789 0.0006103954088034888
29 -0.00018896037817966953 -0.0007175026258863204 0.001001553281417949
8 3.407864981584166e-05 -0.00010373617928834463 -0.00047403642732614105
11 0.0002821214666399434 0.0008979919051466013 0.0009069382077479805
21 -0.0015715806073742082 -0.0014048372096328967 0.0021212728265956357
27 0.001063494183009816 -0.0010284487475110166 0.0027257732203971206
30 -0.0018211878636901914 -0.00022743430556781787 -0.0016521407623013213
3 0.0011187755258539158 0.0004079444579359792 0.0033103864453171146
14 0.0019610426824062783 0.0012140115748715777 0.0006545484266213813
23 -0.0019038668425462456 -0.0007168656524841391 0.00018505944573366485
25 0.0021419644410209447 -0.0012544130637411465 0.0012830184046323239
28 -0.0033471813375833405 -0.0006786279669518158 -0.0028460913691522143
