LAMMPS data file via write_data, version 7 Feb 2024, timestep = 57, units = metal

21 atoms
3 atom types

0 6.857572544502622 xlo xhi
0 2.2858575148342073 ylo yhi
0 11.429287574171036 zlo zhi
0 2.2858575148342073 0 xy xz yz

Masses

1 28.085
2 50.9415
3 51.9961

Atoms # atomic

1 2 3.4469184697393827 2.056451446495609 10.196877185337579 1 0 0
2 2 2.0402755929742904 1.90930778682558 7.043685822884056 1 0 0
3 2 5.772188358245776 0.2762451974019905 11.169612047105476 0 1 -1
4 2 1.781720092435698 1.1047682987458558 0.5925150662323254 1 0 1
5 3 7.242256161772314 1.8298262990446745 3.7908783384711344 0 0 0
6 3 5.466522884629722 0.6925212635789766 2.8143122350698406 0 0 0
7 3 3.726237138493505 0.6812026693370926 5.986240224195945 1 0 0
8 3 1.8886578605762767 0.7985986208293347 9.063347425816257 1 0 0
9 1 7.157929999459531 1.957178111721372 5.972210461683968 0 0 0
10 1 5.558160830615861 0.757893008282063 5.019768675288201 0 0 0
11 1 3.779464567556335 1.8438215801892373 3.9570542719701054 0 -1 0
12 1 7.085364317028603 1.8821194206999659 9.862275267902897 1 0 0
13 1 5.2886604991429005 1.9452737638318252 7.113715685190648 1 -1 0
14 1 3.625527895244755 0.8545639910351993 8.14346423608439 1 0 0
15 1 3.945374120561894 1.651815403728152 1.604766359833096 0 0 0
16 1 1.9778660518702669 0.7644629750582462 4.9581159971101485 1 0 0
17 1 7.036688216210289 2.018510305293456 1.6420516873781137 -1 0 0
18 1 7.035838192729943 0.7871344171242175 7.8808517543444205 0 0 0
19 1 2.1570408138040174 0.6032861578319545 2.6868192202117807 0 0 0
20 1 8.416892857103381 0.8222282477846237 11.327811087899635 1 0 0
21 1 5.252928703467655 0.9282722425809391 9.193974774153096 1 0 0

Velocities

1 0.002536830377812754 0.0024066672085468373 -0.0006730105677450842
2 0.0012952696059929814 -0.002775091854602539 -0.0005054122923332627
3 0.0010042782853505211 0.00032698590089930233 0.0031493508274626435
4 -0.0005315823640396322 -0.0008239010917789159 -0.0015784638045478459
5 -0.0018155602521613592 0.0013040707413482467 0.0025331471693393315
6 -0.00044463099486422947 -0.00046079683539788306 -0.0009646731923888491
7 -0.0015592608290796793 -0.0005639937587364429 -0.00182163213134523
8 -6.201372349595548e-05 -0.0001760126663562913 -0.0005708588977967545
9 5.1605225972791055e-05 0.0005588162442335668 0.0008792528402257569
10 -0.0011782454422505863 -4.5997953492108145e-05 0.00016293141388359155
11 0.000284018939045542 0.0009468562812186292 0.001127107194696147
12 -0.0004368299469223776 0.001069344994960473 -0.001679581556286268
13 -0.0009123216795038906 -0.001374428775906486 -0.0035013012938277977
14 0.002529690573051237 0.0013695541430508772 0.0007895186486307476
15 0.0005046519344341462 0.0015011399449270206 -0.00045952753822267004
16 -0.00160451322538483 -0.001203927056711759 3.269509846592314e-05
17 0.0007673822809966926 0.0008928100755219691 0.0004951725682726175
18 0.0006496873804457422 -0.001320319406648224 0.0029352952972626213
19 0.0012281549143372985 0.001778412311622776 0.0006959260578369641
20 -0.0008649523382784505 -0.00133882959631895 -0.002644195566907135
21 -0.0016404285531999756 -0.001455036937566247 0.001980413793289123
