LAMMPS data file via write_data, version 7 Feb 2024, timestep = 43, units = metal

5 atoms
2 atom types

0 2.2858575148342073 xlo xhi
0 2.2858575148342073 ylo yhi
0 11.429287574171036 zlo zhi

Masses

1 51.9961
2 55.845

Atoms # atomic

1 1 1.89330835440885 0.06180883335895881 10.003504012755325 0 1 0
2 1 1.3016696628897155 0.2682970732493104 1.112264834951578 0 1 0
3 1 1.901197908698201 0.06306597298112264 7.403605623500052 0 1 0
4 1 0.3028759343045697 0.1997110344208461 5.155226300345294 0 1 0
5 2 0.7557394562716696 1.206502217673129 8.70480870159992 0 1 0

Velocities

1 0.0013407136898494797 0.0014980942429107884 -0.000826562371882295
2 0.0005340807243866147 -0.0018684567743993844 -0.0007176749964348979
3 0.00034502578867875864 0.00014694048670228042 0.0016567979092000664
4 -0.0006528116577633223 -0.000600782386706473 -0.001414828726673491
5 -0.0014590085596661022 0.0007673993381742712 0.0012125144026356434
