LAMMPS data file via write_data, version 7 Feb 2024, timestep = 20, units = metal

4 atoms
2 atom types

0 2.2858575148342073 xlo xhi
0 4.571715029668415 ylo yhi
0 4.571715029668415 zlo zhi
0 0 2.2858575148342073 xy xz yz

Masses

1 51.9961
2 55.845

Atoms # atomic

1 1 0.9895294956521368 4.241329153153846 1.840931430210374 1 0 0
2 1 1.2544572194277317 2.3543718771515905 2.8878658624248623 1 0 0
3 1 0.7148093863601956 3.8121388461597725 3.830296735165139 1 0 0
4 2 2.1044347563836356 5.370660859105468 3.178184623940371 1 0 0

Velocities

1 0.0009951791827348415 0.001756444584301898 -0.00050487154098348
2 0.0001636276041575345 -0.0017141063758847061 -0.00039262040221621443
3 -3.1267641830197806e-05 0.00036355080611230785 0.0020552050369992375
4 -0.001049827883258439 -0.00037791468866285794 -0.0010779222096250413
