LAMMPS data file via write_data, version 7 Feb 2024, timestep = 46, units = metal

40 atoms
3 atom types

0 2.2858575148342073 xlo xhi
0 2.2858575148342073 ylo yhi
0 84.57672804886568 zlo zhi
0 64.00401041535781 41.145435267015735 xy xz yz

Masses

1 28.085
2 50.9415
3 51.9961

Atoms # atomic

19 3 5.87020237892187 3.2632331448326095 5.087711886621141 0 0 0
40 1 2.3663199740152736 3.667163182145549 2.927760647432651 1 0 0
5 2 10.07228698007213 7.628361519360835 11.519853268745031 0 0 0
23 3 8.957218395445425 6.4641876218379 9.702233223362759 0 0 0
15 3 11.146392570743627 6.540394441297694 13.336638752422763 0 1 0
1 2 13.21396624925736 8.992684085752554 16.95362121394149 0 0 0
8 2 14.25862631559253 10.196420529019747 18.74989387047587 1 0 0
10 2 12.17198024627975 7.7782986696082 15.160046087356594 1 1 0
9 2 17.606362647550693 11.382169972002274 20.560047589088587 0 0 0
12 3 18.927705229356132 13.661317146124233 24.44875262962737 1 0 0
37 1 18.711743315878504 12.530232978915988 22.357147384054972 0 0 0
34 1 22.02608290683891 15.872256258490381 28.311206831533315 0 0 0
6 2 20.861788759089084 14.764876322358688 26.517514580144873 0 0 0
28 1 23.194433902135888 16.535043922435413 30.30792911156901 1 0 0
18 3 25.10840736289086 16.07010481549453 32.573694946001794 1 1 0
13 3 27.453728577786617 18.293704335793667 36.08261937137564 1 1 0
22 3 26.276886212575604 17.198696446274443 34.33518694938337 1 1 0
30 1 30.953664244156997 19.072192615903653 38.00184466153769 0 1 0
33 1 32.121740775449126 20.17916626943414 39.78282918017932 0 1 0
32 1 34.44013939278623 21.356347318337143 43.643545987341675 0 1 0
16 3 33.29480820651691 22.51140369757084 41.86426467872505 0 0 0
27 1 35.574364031844645 22.480777469588826 45.42472863807637 0 1 0
3 2 37.805962724070376 24.862594019937138 49.554695638742466 1 0 0
21 3 36.68611510772635 25.358332323780445 47.463720396374505 1 0 0
14 3 41.19858250774074 27.349448089135336 54.14925147088496 2 1 0
25 1 40.201149270768944 26.234431630036326 52.25081494578087 1 1 0
39 1 44.61285989950843 28.477750045704717 55.97112703018064 1 0 0
29 1 45.744817931678945 29.59911419360728 57.78830739739612 0 0 0
2 2 46.88347331286354 30.724676195320647 59.62326248998863 0 1 0
4 2 48.028480842385655 31.84380186143111 61.46738741743809 0 0 0
17 3 49.175667085012904 32.97747089859883 63.305200227962466 0 0 0
38 1 52.074868393283175 33.91525914332045 67.56553855099895 1 1 0
36 1 54.297299010340026 35.233712444501265 69.8034100426481 1 1 0
26 1 57.0781558823728 37.632305101085485 74.11299702839082 1 1 0
31 1 55.445668043719074 36.89522829719695 71.88215887020887 1 0 0
35 1 57.83156738656188 38.7686669029655 76.12903957979708 1 1 0
7 2 63.55192533890126 41.25190219311938 82.88602133196608 1 1 0
11 3 62.40518072436221 40.10261736357654 81.0602485930319 1 1 0
20 3 0.6982253081873528 1.4377516490272446 0.24417012467215896 1 1 1
24 1 61.256583318684335 38.45618812823142 79.00085892265668 1 2 0

Velocities

19 0.0010744737958588815 0.0012855537909985434 0.0005344253673922798
40 -0.003542748331609993 0.0005717055542280174 -0.0013703967166581491
5 -0.0015796598655612362 0.001180966675324076 0.0025832000287111558
23 -0.0012263407038724803 -0.0005557932457370642 8.878920591293428e-05
15 0.0005534955445299428 0.0010858961852173933 -0.00029759082423067755
1 0.0027020083882029 0.0022524032299544388 -0.0005852663097311748
8 0.0001561184366703114 -0.000284119435930562 -0.0004893539601644728
10 -0.0006663052136217647 -3.166090371787714e-05 0.00015300193257258222
9 0.0002284024795890613 0.0004083371624294589 0.0006741207216414363
12 -0.00012444441954962177 0.0007749703366516405 -0.001176124329293369
37 -0.0007124718440006345 0.002900889799125248 -0.0004860652697448542
34 -0.00014478173672164224 0.0025211757927541202 -0.002500444625549227
6 -0.0002226218743755296 -0.0005660179617812885 -0.0008791778379385275
28 -0.0031009505933326706 -0.0008317569296787137 -0.002769831840155083
18 0.0006579323127847859 -0.0009457733448460684 0.0021469448771142203
13 -0.00046683534017146036 -0.00098473628675469 -0.002487903810012083
22 -0.00041219667410309895 0.0015583765606706746 -0.0009536822679097899
30 -0.0016311856583534415 -0.000397188477236219 -0.0016198749326922614
33 -0.00047536702904288055 0.0006264505650237665 0.0001526411081428322
32 -0.0007999580951796918 -0.002556942581760483 0.0013997193556657146
16 -0.000965266930883082 -0.0008619618269638861 5.684764478691963e-05
27 0.0011472040224275 -0.0011686878049341988 0.0025967253150857195
3 0.0012004484043078066 0.0002147783778027237 0.0031597971979034157
21 -0.000991128752051455 -0.0010427804141057123 0.0014593561456441005
14 0.0020116804008818655 0.0009911442037254497 0.0006018192906289433
25 0.0021859357049417256 -0.0013863259758919715 0.0012071319293593557
39 0.002009510123073163 0.0017431270176724765 0.0020114389702323688
29 -5.910113430084279e-05 -0.0008691991674986721 0.0009360379990133186
2 0.0014855551389412148 -0.0028245674607515103 -0.00042105729852301476
4 -0.0003043532290632416 -0.0009128347471870646 -0.0014724089748049361
17 0.0007426817681188541 0.0006478515048261267 0.0003898672869882217
38 -0.001898549570197234 -0.0029081391325583668 -0.002174357375654104
36 -0.0010494803505141004 -0.001019306380328127 0.0005627423858510289
26 -0.00021486991603773475 -0.0019456746764933053 -0.0018898796764404303
31 0.002223134589470889 0.00395123404902989 0.0023943815004580783
35 -0.0010175122322142718 0.0011645042434458204 0.0005438788305302423
7 -0.001325957457220675 -0.0006681692177986896 -0.0017274534370331008
11 0.0003946226783277783 0.000686768964072223 0.0008449092229210996
20 -0.00043272574111834103 -0.0009591021168266796 -0.001870721220280499
24 0.002534864881934626 -0.0012743383506032828 0.0004282444513723497
