LAMMPS data file via write_data, version 7 Feb 2024, timestep = 52, units = metal

43 atoms
3 atom types

0 2.2858575148342073 xlo xhi
0 2.2858575148342073 ylo yhi
0 54.860580356020975 zlo zhi
0 13.715145089005246 27.430290178010488 xy xz yz

Masses

1 28.085
2 50.9415
3 51.9961

Atoms # atomic

9 3 2.8709893669064614 2.7181288006355224 3.9360486481236228 0 0 0
13 3 1.7818625175636036 1.6167765161530698 2.6335111799164768 0 0 0
15 3 0.6997842931381435 2.80557724534939 1.2446489938845702 0 0 0
18 3 1.674608856498991 3.8071900996601094 5.146699956855561 0 0 0
2 2 3.877523858857261 5.998476221558107 7.870393236601926 0 0 0
14 3 2.7725558011612286 4.897945362191132 6.463933996576668 0 0 0
21 1 2.7031916826838116 4.823849315360236 9.249396711378932 1 1 0
39 1 3.819942754381205 5.927448449725986 10.57571373513946 0 1 0
6 3 4.948023314496854 7.0144384716221975 11.89222426692154 0 0 0
24 1 3.805683832001569 8.10024967944468 13.227632714670474 1 0 0
5 3 4.966318435410635 9.207950895254976 14.60849377480023 1 0 0
16 3 6.29716346673963 10.167223069095169 18.574133888993252 0 0 0
29 1 5.257672471984962 11.247831479163661 19.885849016964002 1 1 0
30 1 6.145107264458925 8.010395631757001 15.968224613148735 0 1 0
41 1 5.068841143581312 9.09193184857176 17.282558290338887 1 1 0
7 3 7.235829701019707 14.496499008958738 26.097953105764 1 0 0
22 1 7.8151314512491385 13.396923387026066 22.451810855598474 0 0 0
23 1 8.193025731890499 13.359255868502201 24.845316076780207 0 1 0
31 1 6.520389971396003 12.340730636022347 21.198388111387153 0 1 0
40 1 6.856851214606793 12.227273213015414 23.645647447480656 0 1 0
17 3 7.6172246787794915 14.52268866309862 28.572265446578644 1 1 0
3 3 8.953052549771703 15.70125244737541 29.771859171587252 0 1 0
32 1 8.569023945584966 15.63956159884297 27.34330607451909 0 1 0
34 1 8.383699067773113 16.82326778127932 33.32685213777283 1 1 0
37 1 9.351245027294265 17.996620835348327 32.15050626596919 0 0 0
42 1 8.010050516504577 16.86929907038993 30.968961922422558 1 1 0
1 2 9.838712272359924 20.125425690520462 37.02493293241245 1 1 0
4 3 10.90235457243357 19.03694504947475 35.80537385868846 0 1 0
10 3 9.898341641996508 20.060344363195465 39.43507790632763 1 1 0
25 1 11.028391014452808 21.197273458286585 38.24911945645516 1 0 0
35 1 11.021039865684251 21.209909662131878 40.64029167343976 1 1 0
36 1 9.659388740951144 17.935610462502588 34.5876244570521 1 1 0
8 3 10.903351018528712 23.508401626913432 43.189095584625385 1 0 0
43 1 12.11617132971514 22.357911384222323 41.91905208877818 0 1 0
12 3 12.95317980698882 23.5656781263022 45.62252348617847 0 1 0
19 3 12.693029935337483 25.868020430328418 48.03822256607875 1 1 0
20 3 11.950197244889193 22.399957284772476 44.42265569707928 1 1 0
38 1 13.967164996986988 24.72307152802029 46.81786982996128 0 1 0
11 3 13.718725424661942 24.717958353943768 49.38484287213309 1 1 0
26 1 14.565732892338604 28.03329758406721 53.34349047691108 1 1 0
27 1 14.750133527672789 25.839584437404888 50.71937272323884 1 1 0
28 1 15.625019844437942 29.13360373188158 54.69071246787621 1 1 0
33 1 13.515267284562793 26.926556001953497 52.053331902714135 2 1 0

Velocities

9 0.0002265470537122323 0.0004765919609245729 0.0006741205485365585
13 -0.0004862034288805672 -0.0009528953925729817 -0.0025649653773060672
15 0.0005615405664550114 0.001173368520030734 -0.00031580550851546205
18 0.0006687832251571318 -0.000912885637857663 0.0021944072478269133
2 0.0015186416970604155 -0.00284215709570226 -0.00044258914214320233
14 0.002058902304925868 0.00107607084812562 0.0006077689527868901
21 -0.0014349672096976528 -0.0015140484997422396 0.0020584030133869256
39 0.0020566737185169176 0.0018482570964514472 0.0020552607195813135
6 -0.00023187406883096412 -0.0005137425207284365 -0.0009046520012563516
24 0.0025961431222870012 -0.0012502781612254775 0.0004295306986095155
5 -0.0016111673903218817 0.0012618925450233204 0.0026145086257613106
16 -0.0009980263228886136 -0.0008268223657195121 4.815561742634518e-05
29 -6.751467575233146e-05 -0.000834254151036625 0.0009509670761496068
30 -0.0016818362109846325 -0.0003495620047223298 -0.0016736152695850008
41 0.0001103251913196348 -0.0015031511209845378 8.871283764231846e-05
7 -0.001353304279824476 -0.0006175690503627337 -0.001766839262198509
22 -0.0006260763407859844 0.002120319340020497 -0.0013131233079287155
23 -0.0017636081804332405 -0.0008336241653945258 0.00014343038532044908
31 0.0022760376084872635 0.0041156890813609775 0.0024484917220124686
40 -0.003644756615181062 0.0006453631894515349 -0.0014174343514769814
17 0.0007558096342030724 0.0007235549444052591 0.00039012245943498183
3 0.0012145344651593986 0.00027985882545922963 0.0032005619491193146
32 -0.0008282761540158663 -0.0025673419703644454 0.0014271061056211846
34 -0.00015549724890496025 0.0026472096170433914 -0.0025778431254686145
37 -0.0007384394199508159 0.0030371253552468787 -0.0005093436749304393
42 -4.0633871815137e-05 0.00019383146765038851 0.0010453911391583796
1 0.002767777253604283 0.002371215973210164 -0.0006112099376645415
4 -0.00031494581214941615 -0.0008662470777107864 -0.0015076120882214694
10 -0.0006828337845161644 2.9377956565214307e-05 0.00014445544694417238
25 0.0022378393058748534 -0.0013652745449549107 0.001229344455439762
35 -0.0010516752926248098 0.0012540885317727356 0.0005482718131181635
36 -0.0010845022946229166 -0.0009883942768102825 0.000567642173375188
8 0.0001530775574300528 -0.0002272208783208341 -0.0005084350385303128
43 -0.0008460151305888577 -0.0017207119078824853 -0.00036731329596426695
12 -0.00013461353140928198 0.0008540890630291723 -0.0012179424705853002
19 0.0010965158795761731 0.0013783903033726121 0.0005385643648908908
20 -0.000451177411216044 -0.0009265725123973563 -0.0019312010150657054
38 -0.001956383357801367 -0.00292797407784861 -0.0022429949275400655
11 0.00039839928152391363 0.0007635179944806739 0.0008573899538802512
26 -0.00022746847914359954 -0.0019396512017247514 -0.001950874199228255
27 0.0011712001406420985 -0.0011417891146931808 0.0026562718842599825
28 -0.003191089148701923 -0.0007958059569889965 -0.002854467934886259
33 -0.0004949643376398055 0.0007015790280543362 0.00014652275256695036
