LAMMPS data file via write_data, version 7 Feb 2024, timestep = 23, units = metal

4 atoms
2 atom types

0 9.14343005933683 xlo xhi
0 2.2858575148342073 ylo yhi
0 2.2858575148342073 zlo zhi

Masses

1 51.9961
2 55.845

Atoms # atomic

1 1 8.000206956778909 0.10619120780854553 1.7259649442445266 0 0 0
2 1 2.4133656071817087 2.0675491739546956 1.3050850088807748 0 0 0
3 2 5.914404146941435 0.1631157795401823 0.28416622419768417 0 0 0
4 2 4.212127615180277 1.2401300880791815 1.9640726939262163 0 0 0

Velocities

1 0.0010028542284928885 0.0017500381665563657 -0.0005216374211490122
2 0.00017097861623798795 -0.0017218651756350067 -0.00040934254107904717
3 -4.998124653501288e-05 0.000358921533013361 0.001961727172134277
4 -0.0010429497227175811 -0.00038515280981962975 -0.0010949113924940872
