LAMMPS data file via write_data, version 7 Feb 2024, timestep = 733, units = metal

9 atoms
1 atom types

0 6.857572544502622 xlo xhi
0 6.857572544502622 ylo yhi
0 2.2858575148342073 zlo zhi
2.2858575148342073 0 0 xy xz yz

Masses

1 51.9961

Atoms # atomic

1 1 1.3403478722137765 1.2265558256276545 1.8578570865471082 0 0 0
2 1 1.715967604036513 2.8046438314903197 1.8575984372237664 0 0 0
3 1 0.7680651451890325 2.1583106895071693 0.7167825197082893 1 0 0
4 1 6.5750660368601626 1.473477669846505 1.7750710552565403 0 0 0
5 1 7.917319150068572 3.7348181663691764 0.7115906236445466 0 0 0
6 1 7.111495083467926 4.6652687855277355 1.7961592408853324 0 0 0
7 1 1.8857942155657568 4.563897084260975 1.8387896167190223 0 0 -1
8 1 7.017891389676279 3.0566820219089164 1.8495988882738177 0 0 0
9 1 2.3553064323168162 1.812841550802006 0.7133646067200888 0 0 0

Velocities

1 9.747300279157853e-07 -4.451627731090534e-07 6.795243122788676e-07
2 1.4676338815738904e-06 -1.7974041217676752e-07 -4.280038804027687e-07
3 -2.40367938330563e-07 1.8469520420554194e-06 -4.545891773709806e-07
4 2.754889912243185e-07 -7.605009747583068e-07 -1.6647072522384108e-08
5 -2.537647737184695e-06 -1.105710426801439e-06 1.46348090564297e-08
6 -1.270823682358026e-06 -2.3458061397137315e-06 -3.7543460374144615e-07
7 -6.396256970051658e-07 1.1673433361882729e-06 2.890987882631944e-07
8 -1.9190184722660415e-07 -7.281648535825371e-07 2.0104488559349035e-07
9 2.1625140013909658e-06 2.5507902018982163e-06 9.037193884557396e-08
