mass 1 50.941500
mass 2 28.085000
mass 3 51.996100
pair_style hybrid/overlay soft 2.448 mliap model mliappy LATER descriptor ace coupling_coefficients.yace
Loading python model deferred.
pair_coeff * * soft 1000.000000
pair_coeff * * mliap   V Si Cr

thermo 10
velocity all create 0.0001 4928459 dist gaussian
Loading python model complete.
min_style  fire
min_modify integrator eulerexplicit tmax 10.0 tmin 0.0 delaystep 5 dtgrow 1.1 dtshrink 0.5 alpha0 0.1 alphashrink 0.99 vdfmax 100000 halfstepback no initialdelay no
minimize 1e-6 1e-6 1000 10000
Neighbor list info ...
  update: every = 1 steps, delay = 0 steps, check = yes
  max neighbors/atom: 2000, page size: 100000
  master list distance cutoff = 12.8
  ghost atom cutoff = 12.8
  binsize = 6.4000002, bins = 5 3 11
  2 neighbor lists, perpetual/occasional/extra = 2 0 0
  (1) pair soft, perpetual, half/full trim from (2)
      attributes: half, newton on, cut 4.448
      pair build: halffull/trim/newton/tri
      stencil: none
      bin: none
  (2) pair mliap, perpetual
      attributes: full, newton on
      pair build: full/bin/atomonly
      stencil: full/bin/3d
      bin: standard
  Parameters for fire:
    dmax  delaystep dtgrow dtshrink alpha0 alphashrink tmax tmin   integrator   halfstepback   abcfire  
     0.1      5      1.1     0.5     0.1      0.99      10   0   eulerexplicit       no          no     
Per MPI rank memory allocation (min/avg/max) = 6.862 | 6.862 | 6.862 Mbytes
   Step          Temp          E_pair         E_mol          TotEng         Press     
         0   0              22113.513      0              22113.513      2.129712e+08 
        10   3124013.4      11027.51       0              25160.875      2.2398209e+08
        20   2240172.8      6199.7869      0              16334.564      1.8493411e+08
        30   795765.2       5228.5026      0              8828.628       1.583778e+08 
        40   724800.38      3841.9944      0              7121.0675      1.4142623e+08
        50   845546.18      2079.9516      0              5905.2914      1.2462285e+08
        60   18091.749      1757.2334      0              1839.0824      1.0743315e+08
        70   16404.732      1613.8947      0              1688.1114      1.0525899e+08
        80   4467.5286      1597.4712      0              1617.6828      1.0469305e+08
        90   26225.97       1499.3051      0              1617.9541      1.0165075e+08
       100   1579.621       1431.364       0              1438.5104      97441836     
       110   248.60369      1409.5521      0              1410.6768      97106577     
       120   2830.443       1397.8853      0              1410.6905      96619122     
       130   15897.023      1340.389       0              1412.3088      93764676     
       140   1440.2366      1282.2991      0              1288.8149      90409845     
       150   547.8448       1276.7026      0              1279.1811      90185721     
       160   2746.6461      1266.6725      0              1279.0986      89557639     
       170   1756.0499      1248.9093      0              1256.8539      88390533     
       180   653.26095      1246.5736      0              1249.5291      88237470     
       190   4635.1297      1231.306       0              1252.2758      87252587     
       200   443.95517      1216.2         0              1218.2085      85913217     
       210   154.67832      1209.932       0              1210.6318      85652034     
       220   758.42751      1206.9908      0              1210.422       85499371     
       230   196.00394      1208.418       0              1209.3047      85055129     
       240   136.89545      1206.5612      0              1207.1805      84954516     
       250   1125.0276      1202.3626      0              1207.4523      84793747     
       260   928.65312      1188.5724      0              1192.7737      84099255     
       270   315.70896      1187.7054      0              1189.1337      84044514     
       280   19.216375      1181.7209      0              1181.8078      83565865     
       290   965.64453      1178.6072      0              1182.9758      83349438     
       300   475.20345      1176.8251      0              1178.975       83210161     
       310   1.4281409      1174.4507      0              1174.4571      83004809     
       320   150.49296      1173.8628      0              1174.5437      82944527     
       330   1065.9812      1169.7895      0              1174.6121      82613674     
       340   13.270426      1163.4779      0              1163.538       81919377     
       350   19.318104      1162.3309      0              1162.4182      81856242     
       360   206.69206      1161.6358      0              1162.5709      81781181     
       370   1357.8049      1157.192       0              1163.3349      81305115     
       380   193.3444       1152.4054      0              1153.2801      80763502     
       390   42.846526      1151.3867      0              1151.5806      80707904     
       400   276.75012      1150.3254      0              1151.5775      80590409     
       410   2182.9472      1143.3866      0              1153.2625      79810472     
       420   631.42845      1141.4769      0              1144.3336      79576334     
       430   34.483754      1141.0899      0              1141.2459      79545659     
       440   338.04699      1139.8139      0              1141.3432      79419167     
       450   2258.7948      1131.8306      0              1142.0496      78524982     
       460   156.45181      1129.8093      0              1130.5171      78219134     
       470   65.702866      1129.5579      0              1129.8551      78188573     
       480   449.14778      1127.8392      0              1129.8712      77931830     
       490   1.0079685      1123.924       0              1123.9286      77496424     
       500   135.23534      1123.3806      0              1123.9925      77423348     
       510   1090.2934      1119.8991      0              1124.8317      76936342     
       520   109.63713      1117.2096      0              1117.7056      76590199     
       530   49.039716      1117.0375      0              1117.2594      76565102     
       540   259.42315      1116.0716      0              1117.2452      76411626     
       550   533.98086      1113.9737      0              1116.3895      76030706     
       560   2.5064304      1113.2777      0              1113.2891      75999635     
       570   47.441558      1113.0919      0              1113.3065      75972428     
       580   398.05235      1111.6157      0              1113.4165      75793019     
       590   4.8228298      1108.5375      0              1108.5593      75423429     
       600   9.3038168      1108.2886      0              1108.3307      75403843     
       610   71.879159      1108.0095      0              1108.3347      75369914     
       620   604.24406      1106.1283      0              1108.862       75132276     
       630   153.26395      1105.7417      0              1106.4351      75057501     
       640   10.230855      1105.4423      0              1105.4886      75026541     
       650   79.41085       1105.1403      0              1105.4995      74984487     
       660   5.1616737      1103.1207      0              1103.1441      74728196     
       670   22.176327      1102.9349      0              1103.0352      74703427     
       680   193.86392      1102.2003      0              1103.0773      74581810     
       690   4.5604244      1101.1854      0              1101.206       74398983     
       700   74.986988      1100.892       0              1101.2313      74343712     
       710   118.14128      1100.1552      0              1100.6897      74208482     
       720   22.916666      1100.0642      0              1100.1679      74187683     
       730   219.95104      1099.2256      0              1100.2207      74025574     
       740   37.709863      1098.1715      0              1098.3421      73689721     
       750   30.154603      1096.8936      0              1097.03        73564330     
       760   5.1810769      1096.8138      0              1096.8373      73558362     
       770   37.179341      1096.6693      0              1096.8375      73526569     
       780   254.91073      1095.7244      0              1096.8777      73324689     
       790   75.903718      1095.7158      0              1096.0592      73194757     
       800   4.5727974      1095.5916      0              1095.6123      73188134     
       810   51.508154      1095.3948      0              1095.6278      73149445     
       820   372.95944      1094.0756      0              1095.7629      72818893     
       830   36.555277      1093.28        0              1093.4454      72601712     
       840   13.65129       1093.2285      0              1093.2902      72591034     
       850   84.645778      1092.9087      0              1093.2917      72504990     
       860   57.297624      1092.0427      0              1092.3019      72286745     
       870   25.363441      1091.9383      0              1092.053       72250117     
       880   9.0410872      1091.426       0              1091.4669      72110998     
       890   9.4561256      1091.3332      0              1091.376       72099428     
       900   72.736753      1091.0574      0              1091.3864      72027783     
       910   250.77119      1090.0602      0              1091.1948      71746191     
       920   0.69098044     1089.9994      0              1090.0025      71725168     
       930   14.838569      1089.9409      0              1090.008       71707730     
       940   121.30364      1089.5197      0              1090.0685      71583245     
       950   980.76423      1088.8615      0              1093.2986      71250982     
       960   3.9273684      1088.4961      0              1088.5139      71173453     
       970   29.995846      1088.3797      0              1088.5154      71158466     
       980   245.48615      1087.9369      0              1089.0475      70993527     
       990   41.496967      1087.6632      0              1087.851       70962379     
      1000   8.6698351      1087.6371      0              1087.6764      70954934     
Loop time of 493.461 on 1 procs for 1000 steps with 36 atoms

99.7% CPU use with 1 MPI tasks x 1 OpenMP threads

Minimization stats:
  Stopping criterion = max iterations
  Energy initial, next-to-last, final = 
      22113.5131904892   1087.64309629963   1087.63713729351
  Force two-norm initial, final = 7268.3649 15.756637
  Force max component initial, final = 2550.367 4.6144921
  Final line search alpha, max atom move = 0 0
  Iterations, force evaluations = 1000 1082

MPI task timing breakdown:
Section |  min time  |  avg time  |  max time  |%varavg| %total
---------------------------------------------------------------
Pair    | 493.39     | 493.39     | 493.39     |   0.0 | 99.99
Neigh   | 0.0027303  | 0.0027303  | 0.0027303  |   0.0 |  0.00
Comm    | 0.051228   | 0.051228   | 0.051228   |   0.0 |  0.01
Output  | 0.0022783  | 0.0022783  | 0.0022783  |   0.0 |  0.00
Modify  | 0          | 0          | 0          |   0.0 |  0.00
Other   |            | 0.01329    |            |       |  0.00

Nlocal:             36 ave          36 max          36 min
Histogram: 1 0 0 0 0 0 0 0 0 0
Nghost:           8037 ave        8037 max        8037 min
Histogram: 1 0 0 0 0 0 0 0 0 0
Neighs:            717 ave         717 max         717 min
Histogram: 1 0 0 0 0 0 0 0 0 0
FullNghs:        26418 ave       26418 max       26418 min
Histogram: 1 0 0 0 0 0 0 0 0 0

Total # of neighbors = 26418
Ave neighs/atom = 733.83333
Neighbor list builds = 4
Dangerous builds = 0
write_data ./StructureDump/sample.5.dat 
System init for write_data ...
variable etot equal etotal
variable ptot equal press
variable pairp equal epair
variable numat equal atoms
run 0
WARNING: No fixes with time integration, atoms won't move (src/verlet.cpp:60)
Per MPI rank memory allocation (min/avg/max) = 6.865 | 6.865 | 6.865 Mbytes
   Step          Temp          E_pair         E_mol          TotEng         Press     
      1000   8.6698351      1087.6371      0              1087.6764      70771981     
Loop time of 2.8445e-05 on 1 procs for 0 steps with 36 atoms

133.6% CPU use with 1 MPI tasks x 1 OpenMP threads

MPI task timing breakdown:
Section |  min time  |  avg time  |  max time  |%varavg| %total
---------------------------------------------------------------
Pair    | 0          | 0          | 0          |   0.0 |  0.00
Neigh   | 0          | 0          | 0          |   0.0 |  0.00
Comm    | 0          | 0          | 0          |   0.0 |  0.00
Output  | 0          | 0          | 0          |   0.0 |  0.00
Modify  | 0          | 0          | 0          |   0.0 |  0.00
Other   |            | 2.844e-05  |            |       |100.00

Nlocal:             36 ave          36 max          36 min
Histogram: 1 0 0 0 0 0 0 0 0 0
Nghost:           8073 ave        8073 max        8073 min
Histogram: 1 0 0 0 0 0 0 0 0 0
Neighs:            740 ave         740 max         740 min
Histogram: 1 0 0 0 0 0 0 0 0 0
FullNghs:        26634 ave       26634 max       26634 min
Histogram: 1 0 0 0 0 0 0 0 0 0

Total # of neighbors = 26634
Ave neighs/atom = 739.83333
Neighbor list builds = 0
Dangerous builds = 0
print "${etot} ${pairp} ${ptot} ${numat} " append Summary.dat screen no
Total wall time: 0:08:15
