mass 1 28.085000
mass 2 51.996100
pair_style hybrid/overlay soft 2.224 mliap model mliappy LATER descriptor ace coupling_coefficients.yace
Loading python model deferred.
pair_coeff * * soft 1000.000000
pair_coeff * * mliap   Si Cr

thermo 10
velocity all create 0.0001 4928459 dist gaussian
Loading python model complete.
min_style  fire
min_modify integrator eulerexplicit tmax 10.0 tmin 0.0 delaystep 5 dtgrow 1.1 dtshrink 0.5 alpha0 0.1 alphashrink 0.99 vdfmax 100000 halfstepback no initialdelay no
minimize 1e-6 1e-6 1000 10000
Neighbor list info ...
  update: every = 1 steps, delay = 0 steps, check = yes
  max neighbors/atom: 2000, page size: 100000
  master list distance cutoff = 12.8
  ghost atom cutoff = 12.8
  binsize = 6.4000002, bins = 8 6 11
  2 neighbor lists, perpetual/occasional/extra = 2 0 0
  (1) pair soft, perpetual, half/full trim from (2)
      attributes: half, newton on, cut 4.224
      pair build: halffull/trim/newton/tri
      stencil: none
      bin: none
  (2) pair mliap, perpetual
      attributes: full, newton on
      pair build: full/bin/atomonly
      stencil: full/bin/3d
      bin: standard
  Parameters for fire:
    dmax  delaystep dtgrow dtshrink alpha0 alphashrink tmax tmin   integrator   halfstepback   abcfire  
     0.1      5      1.1     0.5     0.1      0.99      10   0   eulerexplicit       no          no     
Per MPI rank memory allocation (min/avg/max) = 9.298 | 9.298 | 9.298 Mbytes
   Step          Temp          E_pair         E_mol          TotEng         Press     
         0   0              21107.027      0              21107.027      1.6582192e+08
        10   2556831.2      9538.4932      0              23749.837      1.7648726e+08
        20   1321048.4      5556.8286      0              12899.461      1.3055562e+08
        30   803877.44      4037.8822      0              8505.9827      1.1666951e+08
        40   656391.16      2845.5636      0              6493.9079      99949571     
        50   12813.307      1054.3889      0              1125.6076      69707187     
        60   5838.7163      674.833        0              707.28567      64298151     
        70   1495.8178      573.83672      0              582.15076      63778811     
        80   17506.433      494.97282      0              592.27684      62607450     
        90   79657.762      165.30368      0              608.05635      55242476     
       100   7563.3941      15.259258      0              57.298011      50244074     
       110   2551.21       -4.2509447      0              9.9291555      49704495     
       120   9929.9472     -49.17578       0              6.0167155      47565683     
       130   35.737656     -97.910437      0             -97.7118        44830019     
       140   2056.2259     -108.25255      0             -96.823661      44556768     
       150   11817.647     -135.8973       0             -70.212613      42372588     
       160   307.04618     -154.92463      0             -153.21801      41997364     
       170   3909.1131     -174.20624      0             -152.47867      41192983     
       180   26172.057     -205.96382      0             -60.494651      38097904     
       190   44.887605     -282.78964      0             -282.54015      36683624     
       200   770.0541      -286.9168       0             -282.6367       36508234     
       210   4039.3579     -301.22688      0             -278.77538      35616098     
       220   1585.1423     -316.69259      0             -307.88207      34650771     
       230   78.804947     -323.85854      0             -323.42053      34731761     
       240   797.30971     -327.88858      0             -323.45699      34479346     
       250   5802.2225     -350.93542      0             -318.68558      32866231     
       260   1222.4709     -372.55872      0             -365.764        31140188     
       270   152.04737     -373.89881      0             -373.05371      31027980     
       280   1420.3776     -379.51011      0             -371.61539      30585946     
       290   1683.8714     -398.1924       0             -388.83313      28092909     
       300   21.236974     -417.12655      0             -417.00851      27694222     
       310   360.4281      -418.82947      0             -416.82614      27488198     
       320   2604.6534     -431.93055      0             -417.4534       26219817     
       330   313.31717     -440.91223      0             -439.17075      25518372     
       340   66.496135     -442.08201      0             -441.71242      25488908     
       350   521.71658     -444.54525      0             -441.64546      25267596     
       360   2933.3678     -457.50894      0             -441.20473      24147075     
       370   773.3745      -464.11631      0             -459.81775      23931855     
       380   61.353168     -464.40422      0             -464.0632       23889650     
       390   592.3648      -465.24661      0             -461.95414      23674222     
       400   3847.8096     -483.0211       0             -461.63426      21742903     
       410   1.519435      -487.30979      0             -487.30134      21613129     
       420   128.2544      -487.93592      0             -487.22306      21575489     
       430   923.98677     -492.7429       0             -487.60721      21000907     
       440   16.076376     -498.44363      0             -498.35428      20172098     
       450   298.33455     -499.30276      0             -497.64456      19959881     
       460   163.80921     -502.60305      0             -501.69257      19337310     
       470   107.02529     -504.64133      0             -504.04647      18968373     
       480   43.512658     -505.38768      0             -505.14583      18922741     
       490   361.90288     -506.81852      0             -504.807        18666284     
       500   156.28655     -511.62191      0             -510.75324      17629820     
       510   0.30086301    -516.71702      0             -516.71535      17431853     
       520   44.887757     -516.81846      0             -516.56897      17418945     
       530   390.35973     -519.87926      0             -517.70957      17293830     
       540   224.36527     -525.0028       0             -523.75573      16582637     
       550   2.277213      -527.89665      0             -527.88399      16555229     
       560   55.385787     -528.16703      0             -527.85918      16530732     
       570   457.28858     -531.63391      0             -529.09222      16253472     
       580   60.764431     -534.46359      0             -534.12585      15733954     
       590   12.475472     -535.04926      0             -534.97992      15739512     
       600   112.9565      -534.40964      0             -533.78181      15695914     
       610   80.9477       -542.74053      0             -542.29061      15258212     
       620   50.37663      -543.12234      0             -542.84233      15228149     
       630   23.746515     -544.64071      0             -544.50872      15145062     
       640   124.32841     -545.13124      0             -544.4402       15051097     
       650   1.8236914     -545.99877      0             -545.98864      14926495     
       660   46.290575     -546.34528      0             -546.08799      14896384     
       670   437.51601     -549.33167      0             -546.89988      14588309     
       680   143.91803     -549.89302      0             -549.0931       14489527     
       690   9.8435681     -549.97047      0             -549.91576      14472931     
       700   87.829655     -550.06736      0             -549.57919      14394443     
       710   735.40193     -553.17452      0             -549.08702      13937279     
       720   0.19861808    -553.90547      0             -553.90437      13793984     
       730   20.663417     -554.00617      0             -553.89132      13772721     
       740   169.22105     -555.81205      0             -554.87149      13604135     
       750   5.9155812     -557.64752      0             -557.61464      13384407     
       760   66.062192     -558.17342      0             -557.80624      13341508     
       770   27.81191      -558.88807      0             -558.73348      13287132     
       780   216.17454     -558.38969      0             -557.18816      13134793     
       790   10.134374     -558.85408      0             -558.79775      13102072     
       800   86.104725     -559.25167      0             -558.77308      13014835     
       810   248.36297     -560.72925      0             -559.3488       12719725     
       820   0.79386203    -560.81922      0             -560.81481      12692396     
       830   17.942501     -560.90569      0             -560.80597      12678555     
       840   151.32711     -561.44503      0             -560.60392      12535515     
       850   903.47859     -560.72664      0             -555.70493      12044673     
       860   3.3578307     -561.07013      0             -561.05147      12034328     
       870   38.216668     -561.2529       0             -561.04049      11991060     
       880   227.98622     -562.13378      0             -560.86659      11954555     
       890   25.705405     -562.38353      0             -562.24065      11952799     
       900   5.3460479     -562.41052      0             -562.3808       11952599     
       910   36.107401     -562.4287       0             -562.22801      11956561     
       920   42.460644     -562.9449       0             -562.7089       11959871     
       930   0.08500909    -563.05886      0             -563.05839      11959701     
       940   7.0555683     -563.09233      0             -563.05311      11959973     
       950   33.234631     -563.2219       0             -563.03718      11962324     
       960   124.19343     -561.93416      0             -561.24387      11977177     
       970   0.34068092    -562.10235      0             -562.10046      11986851     
       980   4.7807388     -562.17698      0             -562.15041      11978074     
       990   35.626049     -562.12064      0             -561.92262      11981322     
      1000   0.8533636     -562.26869      0             -562.26395      11981467     
Loop time of 675.348 on 1 procs for 1000 steps with 44 atoms

99.7% CPU use with 1 MPI tasks x 1 OpenMP threads

Minimization stats:
  Stopping criterion = max iterations
  Energy initial, next-to-last, final = 
      21107.0265755754  -562.266744060949  -562.268690038203
  Force two-norm initial, final = 7565.1361 13.794976
  Force max component initial, final = 2361.8865 4.9049559
  Final line search alpha, max atom move = 0 0
  Iterations, force evaluations = 1000 1083

MPI task timing breakdown:
Section |  min time  |  avg time  |  max time  |%varavg| %total
---------------------------------------------------------------
Pair    | 675.24     | 675.24     | 675.24     |   0.0 | 99.98
Neigh   | 0.0054113  | 0.0054113  | 0.0054113  |   0.0 |  0.00
Comm    | 0.080228   | 0.080228   | 0.080228   |   0.0 |  0.01
Output  | 0.002366   | 0.002366   | 0.002366   |   0.0 |  0.00
Modify  | 0          | 0          | 0          |   0.0 |  0.00
Other   |            | 0.01672    |            |       |  0.00

Nlocal:             44 ave          44 max          44 min
Histogram: 1 0 0 0 0 0 0 0 0 0
Nghost:          12309 ave       12309 max       12309 min
Histogram: 1 0 0 0 0 0 0 0 0 0
Neighs:            922 ave         922 max         922 min
Histogram: 1 0 0 0 0 0 0 0 0 0
FullNghs:        40648 ave       40648 max       40648 min
Histogram: 1 0 0 0 0 0 0 0 0 0

Total # of neighbors = 40648
Ave neighs/atom = 923.81818
Neighbor list builds = 5
Dangerous builds = 0
write_data ./StructureDump/sample.6.dat 
System init for write_data ...
variable etot equal etotal
variable ptot equal press
variable pairp equal epair
variable numat equal atoms
run 0
WARNING: No fixes with time integration, atoms won't move (src/verlet.cpp:60)
Per MPI rank memory allocation (min/avg/max) = 9.304 | 9.304 | 9.304 Mbytes
   Step          Temp          E_pair         E_mol          TotEng         Press     
      1000   0.8533636     -562.26869      0             -562.26395      11970233     
Loop time of 2.8767e-05 on 1 procs for 0 steps with 44 atoms

135.6% CPU use with 1 MPI tasks x 1 OpenMP threads

MPI task timing breakdown:
Section |  min time  |  avg time  |  max time  |%varavg| %total
---------------------------------------------------------------
Pair    | 0          | 0          | 0          |   0.0 |  0.00
Neigh   | 0          | 0          | 0          |   0.0 |  0.00
Comm    | 0          | 0          | 0          |   0.0 |  0.00
Output  | 0          | 0          | 0          |   0.0 |  0.00
Modify  | 0          | 0          | 0          |   0.0 |  0.00
Other   |            | 2.877e-05  |            |       |100.00

Nlocal:             44 ave          44 max          44 min
Histogram: 1 0 0 0 0 0 0 0 0 0
Nghost:          12295 ave       12295 max       12295 min
Histogram: 1 0 0 0 0 0 0 0 0 0
Neighs:            924 ave         924 max         924 min
Histogram: 1 0 0 0 0 0 0 0 0 0
FullNghs:        40496 ave       40496 max       40496 min
Histogram: 1 0 0 0 0 0 0 0 0 0

Total # of neighbors = 40496
Ave neighs/atom = 920.36364
Neighbor list builds = 0
Dangerous builds = 0
print "${etot} ${pairp} ${ptot} ${numat} " append Summary.dat screen no
Total wall time: 0:11:18
