ats_9.data (written by ASE) 

8 	 atoms 
1  atom types
0.0      5.7599999999999998  xlo xhi
0.0      5.7599999999999998  ylo yhi
0.0      2.8799999999999999  zlo zhi


Atoms 

     1   1      1.2714617794231917      2.7760453765718234     0.30797651818026317
     2   1      4.7191527039005541     0.39471259517205537       2.056302970254166
     3   1      4.9076811925805375      4.2328124790136927      2.0072013467690839
     4   1      2.7499764108078444      4.3861778865240222      1.6179581299617778
     5   1      3.6646619364802984        5.24222950553066      2.6736160625906864
     6   1      2.6378027474482164      3.1706946031045735      2.5582512675749816
     7   1       4.007715560864491      3.6698229194701746     0.40407765702839288
     8   1      3.9583714114168513      2.3919962852718664      1.5565209764640582
