ats_6.data (written by ASE) 

8 	 atoms 
1  atom types
0.0      5.7599999999999998  xlo xhi
0.0      5.7599999999999998  ylo yhi
0.0      2.8799999999999999  zlo zhi


Atoms 

     1   1      1.4875448057086191      4.1764377606097405    0.070699621872851059
     2   1      3.4698246770548931     0.80108663857259121      2.5132299363843398
     3   1      4.7194588409725258      3.6889828989097619     0.72082070472777848
     4   1      1.0059188909295678      2.4532698441564849      2.4269954291709999
     5   1      3.9912282518853339      1.6126103069821984      1.3347077928300668
     6   1      2.5803514186797192      5.1900489351843335      2.1713396579645243
     7   1      5.3455046394501728      3.7245755276808641       2.325062847340627
     8   1     0.21895098582432665      1.1295856441340428      2.2770914935045754
