ats_8.data (written by ASE) 

8 	 atoms 
1  atom types
0.0      5.7599999999999998  xlo xhi
0.0      5.7599999999999998  ylo yhi
0.0      2.8799999999999999  zlo zhi


Atoms 

     1   1      2.8025629510885723      5.6485292904091216     0.88936803310307555
     2   1       2.423762951540823      1.2368836962351943      1.8114137151475107
     3   1      3.6513470358029183       4.773100318632804      2.3427176796106859
     4   1      1.4914375736760141      5.2578135514488693      2.7695282685770195
     5   1      5.3201859073541788     0.22478309472725605      2.1006106874594752
     6   1      1.4060990302279901      3.1064945819875827      1.6938733832111463
     7   1      5.2430882056911541      1.6634900302077353     0.37761355851938133
     8   1      3.1426966832233383       3.021283161097962     0.56241009061938674
