ats_4.data (written by ASE) 

8 	 atoms 
1  atom types
0.0      5.7599999999999998  xlo xhi
0.0      5.7599999999999998  ylo yhi
0.0      2.8799999999999999  zlo zhi


Atoms 

     1   1      1.3736052767070583      4.6433865948024318      1.5957234194375725
     2   1      1.6247798654154046     0.90389239844498093      2.1439438562920579
     3   1      3.3924353427236693      1.0657266172109543      2.8747803309778033
     4   1       3.325301298547843      3.4134823742574691     0.79169063178076726
     5   1    0.029711459247315372      3.6980561029041956     0.95827526930749318
     6   1      5.2086555162424713      2.0924155064163061      1.7316862173412166
     7   1       3.836648562533413      5.5186893440319738      0.2001404936802067
     8   1      0.6306780028001564      5.2452951244524009     0.42464241573684908
