ats_5.data (written by ASE) 

8 	 atoms 
1  atom types
0.0      5.7599999999999998  xlo xhi
0.0      5.7599999999999998  ylo yhi
0.0      2.8799999999999999  zlo zhi


Atoms 

     1   1      2.0416998824108803      2.3568674057321193      2.5745570090569863
     2   1      4.8352619672661339    0.055591640620679783     0.30998127836974287
     3   1      3.7039506475894721      3.6086695364186703      2.4066129792962729
     4   1      3.2487510204297303      2.5178038342491473     0.98958015987125425
     5   1       2.781619657426718     0.45754421715147903      2.1741716819864494
     6   1       4.624472147942031      1.5301847011919716      2.0059805676749396
     7   1      1.6022369457961239      3.9375249695031256     0.98791830656671942
     8   1      4.9077030703423352      4.1338790408707027      1.8968887999533794
