ats_0.data (written by ASE) 

8 	 atoms 
1  atom types
0.0      5.7599999999999998  xlo xhi
0.0      5.7599999999999998  ylo yhi
0.0      2.8799999999999999  zlo zhi


Atoms 

     1   1    0.074486907650561623      5.7392627849414408    0.097155626905034626
     2   1      1.6684458928204013      1.4048491312638332      1.4048787521525405
     3   1     0.23689984077536957      2.9950949364576451      2.8095822807032524
     4   1      1.5213872021792982      4.2504611153593768      1.3701439123214871
     5   1       2.916290113578301      5.4729887877671102      2.6212709083743486
     6   1      4.2356680235379516      1.2880976439832785      1.4871331666297636
     7   1      2.7438211962239389      2.6681496149332351     0.21984563844607768
     8   1      4.2861319849756727      4.3301156102343956      1.2262889906893271
