LAMMPS (7 Feb 2024 - Development - 857298b639-modified)
OMP_NUM_THREADS environment is not set. Defaulting to 1 thread. (src/comm.cpp:98)
  using 1 OpenMP thread(s) per MPI task

units           metal
boundary        p p p

read_data  ats_10.data
Reading data file ...
  orthogonal box = (0 0 0) to (5.76 5.76 2.88)
  1 by 1 by 1 MPI processor grid
  reading atoms ...
  8 atoms
  read_data CPU = 0.007 seconds

log log_10.lammps
