mass 1 51.996100
pair_style hybrid/overlay soft 1.5 mliap model mliappy LATER descriptor ace coupling_coefficients.yace
Loading python model deferred.
pair_coeff * * soft 100.0
pair_coeff * * mliap   Cr

thermo 10
velocity all create 0.0001 4928459 dist gaussian
Loading python model complete.
min_style  fire
min_modify integrator eulerexplicit tmax 10.0 tmin 0.0 delaystep 5 dtgrow 1.1 dtshrink 0.5 alpha0 0.1 alphashrink 0.99 vdfmax 100000 halfstepback no initialdelay no
minimize 1e-12 1e-12 10000 100000
Neighbor list info ...
  update: every = 1 steps, delay = 0 steps, check = yes
  max neighbors/atom: 2000, page size: 100000
  master list distance cutoff = 13.209389
  ghost atom cutoff = 13.209389
  binsize = 6.6046944, bins = 1 1 1
  2 neighbor lists, perpetual/occasional/extra = 2 0 0
  (1) pair soft, perpetual, half/full trim from (2)
      attributes: half, newton on, cut 3.5
      pair build: halffull/trim/newton
      stencil: none
      bin: none
  (2) pair mliap, perpetual
      attributes: full, newton on
      pair build: full/bin/atomonly
      stencil: full/bin/3d
      bin: standard
  Parameters for fire:
    dmax  delaystep dtgrow dtshrink alpha0 alphashrink tmax tmin   integrator   halfstepback   abcfire  
     0.1      5      1.1     0.5     0.1      0.99      10   0   eulerexplicit       no          no     
Per MPI rank memory allocation (min/avg/max) = 3.987 | 3.987 | 3.987 Mbytes
   Step          Temp          E_pair         E_mol          TotEng         Press     
         0   0             -18.389866      0             -18.389866     -422062       
        10   3139.1708     -20.97267       0             -18.132282     -481901.81    
        20   1480.7345     -40.939233      0             -39.599433     -188849.02    
        30   22260.318     -58.048941      0             -37.907337     -329157.79    
        40   1052.5009     -66.165919      0             -65.213594     -810164.35    
        50   10798.771     -74.68325       0             -64.912295     -771821.69    
        60   11269.253     -90.298356      0             -80.1017       -771585.89    
        70   4343.3491     -94.655853      0             -90.725899     -1251919.8    
        80   1525.5307     -95.883607      0             -94.503275     -1296314.4    
        90   7991.14       -102.04394      0             -94.813385     -1245750.2    
       100   13951.032     -113.62199      0             -100.9988      -1711861.7    
       110   3208.9323     -116.35151      0             -113.448       -1621638.1    
       120   1375.0303     -109.80001      0             -108.55585     -2009436.6    
       130   1714.9223     -113.54738      0             -111.99568     -1570322.7    
       140   6821.8808     -118.50989      0             -112.33731     -1464982.6    
       150   21.802645     -124.44474      0             -124.42501     -1420283.6    
       160   1098.9243     -125.41822      0             -124.42389     -1482613.2    
       170   49.636889     -127.29709      0             -127.25217     -1137812.9    
       180   95.342088     -127.84775      0             -127.76148     -1261869.4    
       190   274.34254     -128.04356      0             -127.79533     -1308887      
       200   0.11423581    -128.06338      0             -128.06328     -1288265.5    
       210   10.153051     -128.07157      0             -128.06239     -1288255.2    
       220   44.530909     -128.1064       0             -128.06611     -1287412.8    
       230   0.17637138    -128.02956      0             -128.0294      -1279274.5    
       240   0.16004878    -128.03249      0             -128.03234     -1273451      
       250   0.94387668    -128.03337      0             -128.03252     -1278599.6    
       260   0.20784472    -128.03428      0             -128.03409     -1276499.8    
       270   0.8085659     -128.03486      0             -128.03413     -1274959      
       280   0.0065168311  -128.14506      0             -128.14506     -1286361.9    
       290   0.34332242    -128.14535      0             -128.14504     -1287534      
       300   0.1075883     -128.14573      0             -128.14563     -1285243.1    
       310   0.021318085   -128.14576      0             -128.14574     -1285456.9    
       320   0.13645126    -128.14588      0             -128.14575     -1285004.1    
       330   0.040634626   -128.14606      0             -128.14602     -1285034.8    
       340   2.0281506e-05 -128.14608      0             -128.14608     -1284647.4    
       350   0.0024570061  -128.14608      0             -128.14607     -1284592.7    
       360   0.016544496   -128.14609      0             -128.14608     -1284840.8    
       370   0.025689944   -128.1461       0             -128.14608     -1283979.8    
       380   0.0001040679  -128.14613      0             -128.14613     -1284729.2    
       390   0.002099356   -128.14615      0             -128.14615     -1284801.9    
       400   0.016252104   -128.14615      0             -128.14613     -1284838.1    
       410   0.0028818207  -128.14616      0             -128.14616     -1284567.5    
       420   0.00037092292 -128.14618      0             -128.14618     -1284796.6    
       430   0.0031272261  -128.14618      0             -128.14617     -1284797.9    
       440   0.0021867599  -128.14619      0             -128.14619     -1284878      
       450   0.0011371383  -128.14618      0             -128.14618     -1284827.5    
       460   0.00063506633 -128.14619      0             -128.14619     -1284769.1    
       470   0.0033094646  -128.1462       0             -128.14619     -1284823.1    
       480   0.0077219221  -128.14619      0             -128.14618     -1284651.9    
       490   5.2124248e-05 -128.14619      0             -128.14619     -1284819.3    
       500   0.0005803649  -128.14619      0             -128.14619     -1284750.3    
       510   0.0040743859  -128.1462       0             -128.1462      -1284730      
       520   0.00054488172 -128.14619      0             -128.14619     -1284651.1    
       530   4.2909194e-05 -128.14622      0             -128.14622     -1284782.6    
       540   0.00059361737 -128.14621      0             -128.14621     -1284771.4    
       550   0.0046625922  -128.14621      0             -128.14621     -1284785.7    
       560   0.0015477457  -128.1462       0             -128.1462      -1284463.1    
       570   0.0027222116  -128.14622      0             -128.14622     -1284836      
       580   6.6852071e-05 -128.14622      0             -128.14622     -1284762.2    
       590   0.00035490431 -128.14621      0             -128.14621     -1284782.3    
       600   0.0024969067  -128.14619      0             -128.14619     -1284730.2    
       610   9.845662e-05  -128.14622      0             -128.14622     -1284776.5    
       620   0.00056877373 -128.14622      0             -128.14622     -1284799.7    
       630   1.2545694e-06 -128.14621      0             -128.14621     -1284770.4    
       640   0.0001869598  -128.14622      0             -128.14622     -1284775.3    
       650   0.0015845995  -128.14622      0             -128.14622     -1284754.2    
       660   0.0084188827  -128.14622      0             -128.14621     -1284868.1    
       670   3.0358107e-07 -128.14621      0             -128.14621     -1284783.5    
       680   3.0514611e-05 -128.14621      0             -128.14621     -1284771.7    
       690   0.00015932108 -128.14623      0             -128.14623     -1284782.4    
       700   4.367764e-05  -128.14623      0             -128.14623     -1284767.8    
       710   6.5677195e-05 -128.14622      0             -128.14622     -1284776.5    
       720   1.5291783e-05 -128.14622      0             -128.14622     -1284772.8    
       730   0.00014026387 -128.14622      0             -128.14622     -1284768.9    
       740   0.00023330605 -128.14622      0             -128.14622     -1284791.6    
       750   1.5805681e-06 -128.14621      0             -128.14621     -1284777.7    
       760   2.0800628e-05 -128.14622      0             -128.14622     -1284767.4    
       770   0.00014421881 -128.14622      0             -128.14622     -1284759.1    
       780   5.2841155e-06 -128.14621      0             -128.14621     -1284768      
       790   4.5927244e-05 -128.14623      0             -128.14623     -1284767.6    
       800   0.00020222061 -128.14621      0             -128.14621     -1284746.4    
       810   1.153219e-05  -128.14621      0             -128.14621     -1284769.2    
       820   0.00011341689 -128.14622      0             -128.14622     -1284768.9    
       830   1.3397221e-05 -128.14622      0             -128.14622     -1284769.2    
       840   3.2156002e-06 -128.14623      0             -128.14623     -1284772.6    
       850   2.1926958e-05 -128.14623      0             -128.14623     -1284773.1    
       860   1.281733e-05  -128.14622      0             -128.14622     -1284779.1    
       870   6.8917469e-06 -128.14621      0             -128.14621     -1284774.4    
       880   5.1781612e-05 -128.14622      0             -128.14622     -1284775.5    
       890   1.751734e-05  -128.14622      0             -128.14622     -1284771.6    
       900   1.4273372e-07 -128.14622      0             -128.14622     -1284775.6    
       910   5.6284261e-06 -128.14621      0             -128.14621     -1284767.4    
       920   3.2058836e-06 -128.14623      0             -128.14623     -1284765.6    
       930   2.5411161e-06 -128.14621      0             -128.14621     -1284771.6    
       940   1.2986742e-05 -128.14622      0             -128.14622     -1284774.8    
       950   7.8837271e-05 -128.14623      0             -128.14623     -1284770.7    
       960   3.5896675e-06 -128.14622      0             -128.14622     -1284771.2    
       970   3.597233e-05  -128.14622      0             -128.14622     -1284769.5    
       980   5.2842205e-05 -128.14623      0             -128.14623     -1284792.3    
       990   2.3461023e-06 -128.14622      0             -128.14622     -1284771.7    
      1000   4.1664674e-07 -128.14623      0             -128.14623     -1284770.9    
      1010   3.3371048e-06 -128.14623      0             -128.14623     -1284771.5    
      1020   2.7407325e-05 -128.14622      0             -128.14622     -1284764.4    
      1030   8.0592895e-07 -128.14623      0             -128.14623     -1284769.3    
      1040   2.8168055e-08 -128.14621      0             -128.14621     -1284769.8    
      1050   2.1141835e-06 -128.14622      0             -128.14622     -1284769.2    
      1060   3.7813475e-08 -128.14623      0             -128.14623     -1284769.6    
      1070   7.408915e-07  -128.14623      0             -128.14623     -1284771.5    
      1080   7.4483789e-06 -128.14623      0             -128.14623     -1284770.4    
      1090   3.4101131e-06 -128.14623      0             -128.14623     -1284771.6    
      1100   1.5454279e-07 -128.14622      0             -128.14622     -1284770.4    
      1110   1.0662843e-06 -128.14621      0             -128.14621     -1284770.1    
      1120   9.2498732e-07 -128.14623      0             -128.14623     -1284768.6    
      1130   1.3502588e-09 -128.14623      0             -128.14623     -1284770      
      1140   1.5465928e-07 -128.14622      0             -128.14622     -1284770.7    
      1150   1.152809e-06  -128.14623      0             -128.14623     -1284770.2    
      1160   6.7585144e-07 -128.14622      0             -128.14622     -1284771.7    
      1170   2.2013506e-07 -128.14622      0             -128.14622     -1284771.1    
      1180   3.5834725e-06 -128.14622      0             -128.14622     -1284770.6    
      1190   2.0544123e-07 -128.14621      0             -128.14621     -1284770.2    
      1200   9.1571378e-08 -128.14621      0             -128.14621     -1284770.6    
      1210   4.3224801e-07 -128.14624      0             -128.14624     -1284769.9    
      1220   2.6625521e-07 -128.14622      0             -128.14622     -1284771.1    
      1230   1.0519412e-07 -128.14624      0             -128.14624     -1284770      
      1240   3.6540402e-08 -128.14622      0             -128.14622     -1284769.9    
      1250   3.5407863e-08 -128.14621      0             -128.14621     -1284770.6    
      1260   2.7412175e-07 -128.14622      0             -128.14622     -1284770.9    
      1270   1.0473562e-07 -128.14621      0             -128.14621     -1284770.2    
      1280   6.6118659e-08 -128.14622      0             -128.14622     -1284770.8    
      1290   5.7875538e-07 -128.14622      0             -128.14622     -1284771.2    
      1300   2.5304128e-08 -128.14623      0             -128.14623     -1284770.6    
      1310   1.6364292e-07 -128.14622      0             -128.14622     -1284770.9    
      1320   3.2583937e-09 -128.14622      0             -128.14622     -1284770.8    
      1330   4.963777e-08  -128.14623      0             -128.14623     -1284770.2    
      1340   2.0074593e-08 -128.14621      0             -128.14621     -1284770      
      1350   1.5870458e-08 -128.14621      0             -128.14621     -1284770.5    
      1360   1.1210586e-07 -128.14621      0             -128.14621     -1284770.7    
      1370   3.1379843e-07 -128.14623      0             -128.14623     -1284770.5    
      1380   6.7336904e-10 -128.14623      0             -128.14623     -1284770.6    
      1390   1.6970417e-08 -128.14623      0             -128.14623     -1284770.4    
      1400   1.4703525e-07 -128.14621      0             -128.14621     -1284770.4    
      1410   2.6792793e-10 -128.14623      0             -128.14623     -1284770.5    
      1420   3.1347482e-08 -128.14623      0             -128.14623     -1284770.4    
      1430   2.6436268e-07 -128.14622      0             -128.14622     -1284771.3    
      1440   5.2246296e-11 -128.14623      0             -128.14623     -1284770.4    
      1450   6.6343927e-09 -128.14623      0             -128.14623     -1284770.5    
      1460   6.0543904e-08 -128.14621      0             -128.14621     -1284770.5    
      1470   5.4272333e-10 -128.14622      0             -128.14622     -1284770.2    
      1480   9.7938223e-10 -128.14621      0             -128.14621     -1284770.5    
      1490   9.097652e-09  -128.14621      0             -128.14621     -1284770.4    
      1500   6.8747632e-08 -128.14621      0             -128.14621     -1284770.6    
      1510   2.5294418e-09 -128.14621      0             -128.14621     -1284770.4    
      1520   1.7334593e-08 -128.14621      0             -128.14621     -1284770.3    
      1530   4.1895878e-11 -128.14623      0             -128.14623     -1284770.5    
      1540   5.5541964e-09 -128.14623      0             -128.14623     -1284770.4    
      1550   4.3362444e-08 -128.14621      0             -128.14621     -1284770.7    
      1560   3.8986801e-08 -128.14621      0             -128.14621     -1284770.3    
      1570   2.7129696e-09 -128.14621      0             -128.14621     -1284770.5    
      1580   9.4404072e-10 -128.14621      0             -128.14621     -1284770.4    
      1590   5.437928e-09  -128.14621      0             -128.14621     -1284770.5    
      1600   2.3476243e-09 -128.14621      0             -128.14621     -1284770.5    
      1610   1.1582836e-09 -128.14621      0             -128.14621     -1284770.5    
      1620   9.3775896e-09 -128.14621      0             -128.14621     -1284770.5    
      1630   3.0297914e-09 -128.14621      0             -128.14621     -1284770.6    
      1640   2.0905215e-10 -128.14623      0             -128.14623     -1284770.4    
      1650   1.8275469e-09 -128.14623      0             -128.14623     -1284770.4    
      1660   1.1061503e-08 -128.14621      0             -128.14621     -1284770.3    
      1670   2.48403e-10   -128.14623      0             -128.14623     -1284770.4    
      1680   3.3377111e-09 -128.14623      0             -128.14623     -1284770.4    
      1690   8.1778182e-11 -128.14623      0             -128.14623     -1284770.5    
      1700   1.15429e-09   -128.14622      0             -128.14622     -1284770.4    
      1710   1.7707106e-09 -128.14623      0             -128.14623     -1284770.4    
      1720   3.0555977e-10 -128.14623      0             -128.14623     -1284770.4    
      1730   2.9404379e-09 -128.14622      0             -128.14622     -1284770.4    
      1740   5.2486244e-11 -128.14623      0             -128.14623     -1284770.4    
      1750   8.4940164e-10 -128.14623      0             -128.14623     -1284770.4    
      1760   3.4098183e-12 -128.14623      0             -128.14623     -1284770.4    
      1770   2.2056788e-10 -128.14622      0             -128.14622     -1284770.4    
      1780   1.5767493e-09 -128.14622      0             -128.14622     -1284770.4    
      1790   2.5017201e-10 -128.14622      0             -128.14622     -1284770.4    
      1800   4.916509e-11  -128.14623      0             -128.14623     -1284770.4    
      1810   3.321038e-10  -128.14622      0             -128.14622     -1284770.4    
      1820   2.7405538e-11 -128.14623      0             -128.14623     -1284770.4    
      1830   7.6964202e-11 -128.14622      0             -128.14622     -1284770.4    
      1840   6.1753702e-10 -128.14622      0             -128.14622     -1284770.4    
      1850   4.0163856e-12 -128.14622      0             -128.14622     -1284770.4    
      1860   1.9501031e-10 -128.14622      0             -128.14622     -1284770.4    
      1870   1.6129929e-09 -128.14622      0             -128.14622     -1284770.4    
      1880   1.050994e-08  -128.14623      0             -128.14623     -1284770.5    
      1890   1.1678391e-12 -128.14622      0             -128.14622     -1284770.4    
      1900   3.0154959e-11 -128.14622      0             -128.14622     -1284770.4    
      1910   1.5409056e-10 -128.14622      0             -128.14622     -1284770.4    
      1920   4.4787756e-10 -128.14623      0             -128.14623     -1284770.4    
      1930   3.4347165e-12 -128.14622      0             -128.14622     -1284770.4    
      1940   2.713632e-11  -128.14622      0             -128.14622     -1284770.4    
      1950   1.8734838e-10 -128.14622      0             -128.14622     -1284770.4    
      1960   5.4023434e-12 -128.14622      0             -128.14622     -1284770.4    
      1970   3.819208e-11  -128.14622      0             -128.14622     -1284770.4    
      1980   3.6885451e-10 -128.14622      0             -128.14622     -1284770.4    
      1990   1.2186982e-11 -128.14622      0             -128.14622     -1284770.4    
      2000   7.2235276e-11 -128.14622      0             -128.14622     -1284770.4    
      2010   1.7309515e-12 -128.14622      0             -128.14622     -1284770.4    
      2020   2.2268997e-11 -128.14622      0             -128.14622     -1284770.4    
      2030   1.9899925e-10 -128.14622      0             -128.14622     -1284770.4    
      2040   6.1405344e-12 -128.14622      0             -128.14622     -1284770.4    
      2050   4.7513541e-11 -128.14622      0             -128.14622     -1284770.4    
      2060   3.1152874e-13 -128.14622      0             -128.14622     -1284770.4    
      2070   1.3923687e-11 -128.14622      0             -128.14622     -1284770.4    
      2080   1.6706449e-11 -128.14622      0             -128.14622     -1284770.4    
      2090   8.0439892e-12 -128.14622      0             -128.14622     -1284770.4    
      2100   3.197565e-11  -128.14622      0             -128.14622     -1284770.4    
      2110   9.1647847e-13 -128.14622      0             -128.14622     -1284770.4    
      2120   9.1674413e-12 -128.14622      0             -128.14622     -1284770.4    
      2130   8.8471889e-11 -128.14622      0             -128.14622     -1284770.4    
      2140   3.7866456e-11 -128.14622      0             -128.14622     -1284770.4    
      2150   1.4917271e-12 -128.14622      0             -128.14622     -1284770.4    
      2160   1.2233387e-11 -128.14622      0             -128.14622     -1284770.4    
      2170   9.7516985e-11 -128.14622      0             -128.14622     -1284770.4    
      2180   2.1377469e-14 -128.14622      0             -128.14622     -1284770.4    
      2190   1.9653325e-12 -128.14622      0             -128.14622     -1284770.4    
      2200   1.5470612e-11 -128.14622      0             -128.14622     -1284770.4    
      2210   6.0509719e-13 -128.14621      0             -128.14621     -1284770.4    
      2220   2.1950828e-13 -128.14621      0             -128.14621     -1284770.4    
      2230   2.3189794e-12 -128.14621      0             -128.14621     -1284770.4    
      2240   1.6923443e-11 -128.14621      0             -128.14621     -1284770.4    
      2250   4.5492395e-13 -128.14621      0             -128.14621     -1284770.4    
      2260   4.0661449e-12 -128.14621      0             -128.14621     -1284770.4    
      2270   1.2324542e-12 -128.14621      0             -128.14621     -1284770.4    
      2280   1.574965e-12  -128.14621      0             -128.14621     -1284770.4    
      2290   6.6877107e-13 -128.14621      0             -128.14621     -1284770.4    
      2300   4.3758317e-12 -128.14621      0             -128.14621     -1284770.4    
      2310   3.5415003e-14 -128.14621      0             -128.14621     -1284770.4    
      2320   1.1213801e-12 -128.14621      0             -128.14621     -1284770.4    
      2330   5.3584732e-13 -128.14621      0             -128.14621     -1284770.4    
      2340   3.3428998e-13 -128.14621      0             -128.14621     -1284770.4    
      2350   2.6485393e-12 -128.14621      0             -128.14621     -1284770.4    
      2360   9.9489338e-15 -128.14621      0             -128.14621     -1284770.4    
      2370   6.7212708e-13 -128.14621      0             -128.14621     -1284770.4    
      2380   7.4871232e-12 -128.14621      0             -128.14621     -1284770.4    
      2390   1.9794463e-13 -128.14621      0             -128.14621     -1284770.4    
      2400   1.6702429e-12 -128.14621      0             -128.14621     -1284770.4    
      2410   5.1039362e-14 -128.14621      0             -128.14621     -1284770.4    
      2420   2.0538437e-14 -128.14621      0             -128.14621     -1284770.4    
      2430   2.9828401e-13 -128.14621      0             -128.14621     -1284770.4    
Loop time of 14.9369 on 1 procs for 2430 steps with 8 atoms

99.7% CPU use with 1 MPI tasks x 1 OpenMP threads

Minimization stats:
  Stopping criterion = energy tolerance
  Energy initial, next-to-last, final = 
     -18.3898658752441  -128.146209523985  -128.146209523942
  Force two-norm initial, final = 30.480812 4.0294499e-07
  Force max component initial, final = 12.997957 2.0445467e-07
  Final line search alpha, max atom move = 0 0
  Iterations, force evaluations = 2430 2626

MPI task timing breakdown:
Section |  min time  |  avg time  |  max time  |%varavg| %total
---------------------------------------------------------------
Pair    | 14.896     | 14.896     | 14.896     |   0.0 | 99.72
Neigh   | 0.00013653 | 0.00013653 | 0.00013653 |   0.0 |  0.00
Comm    | 0.025934   | 0.025934   | 0.025934   |   0.0 |  0.17
Output  | 0.002715   | 0.002715   | 0.002715   |   0.0 |  0.02
Modify  | 0          | 0          | 0          |   0.0 |  0.00
Other   |            | 0.01239    |            |       |  0.08

Nlocal:              8 ave           8 max           8 min
Histogram: 1 0 0 0 0 0 0 0 0 0
Nghost:           2393 ave        2393 max        2393 min
Histogram: 1 0 0 0 0 0 0 0 0 0
Neighs:             69 ave          69 max          69 min
Histogram: 1 0 0 0 0 0 0 0 0 0
FullNghs:         6654 ave        6654 max        6654 min
Histogram: 1 0 0 0 0 0 0 0 0 0

Total # of neighbors = 6654
Ave neighs/atom = 831.75
Neighbor list builds = 1
Dangerous builds = 0
write_data ./StructureDump/sample.9.dat 
System init for write_data ...
variable etot equal etotal
variable ptot equal press
variable pairp equal epair
variable numat equal atoms
run 0
WARNING: No fixes with time integration, atoms won't move (src/verlet.cpp:60)
Per MPI rank memory allocation (min/avg/max) = 3.988 | 3.988 | 3.988 Mbytes
   Step          Temp          E_pair         E_mol          TotEng         Press     
      2430   2.9828401e-13 -128.14621      0             -128.14621     -903790.9     
Loop time of 2.2604e-05 on 1 procs for 0 steps with 8 atoms

97.3% CPU use with 1 MPI tasks x 1 OpenMP threads

MPI task timing breakdown:
Section |  min time  |  avg time  |  max time  |%varavg| %total
---------------------------------------------------------------
Pair    | 0          | 0          | 0          |   0.0 |  0.00
Neigh   | 0          | 0          | 0          |   0.0 |  0.00
Comm    | 0          | 0          | 0          |   0.0 |  0.00
Output  | 0          | 0          | 0          |   0.0 |  0.00
Modify  | 0          | 0          | 0          |   0.0 |  0.00
Other   |            | 2.26e-05   |            |       |100.00

Nlocal:              8 ave           8 max           8 min
Histogram: 1 0 0 0 0 0 0 0 0 0
Nghost:           2272 ave        2272 max        2272 min
Histogram: 1 0 0 0 0 0 0 0 0 0
Neighs:             67 ave          67 max          67 min
Histogram: 1 0 0 0 0 0 0 0 0 0
FullNghs:         6660 ave        6660 max        6660 min
Histogram: 1 0 0 0 0 0 0 0 0 0

Total # of neighbors = 6660
Ave neighs/atom = 832.5
Neighbor list builds = 0
Dangerous builds = 0
print "${etot} ${pairp} ${ptot} ${numat} " append Summary.dat screen no
Total wall time: 0:00:15
