mass 1 51.996100
pair_style hybrid/overlay soft 1.5 mliap model mliappy LATER descriptor ace coupling_coefficients.yace
Loading python model deferred.
pair_coeff * * soft 100.0
pair_coeff * * mliap   Cr

thermo 10
velocity all create 0.0001 4928459 dist gaussian
Loading python model complete.
min_style  fire
min_modify integrator eulerexplicit tmax 10.0 tmin 0.0 delaystep 5 dtgrow 1.1 dtshrink 0.5 alpha0 0.1 alphashrink 0.99 vdfmax 100000 halfstepback no initialdelay no
minimize 1e-12 1e-12 10000 100000
Neighbor list info ...
  update: every = 1 steps, delay = 0 steps, check = yes
  max neighbors/atom: 2000, page size: 100000
  master list distance cutoff = 13.209389
  ghost atom cutoff = 13.209389
  binsize = 6.6046944, bins = 1 1 1
  2 neighbor lists, perpetual/occasional/extra = 2 0 0
  (1) pair soft, perpetual, half/full trim from (2)
      attributes: half, newton on, cut 3.5
      pair build: halffull/trim/newton
      stencil: none
      bin: none
  (2) pair mliap, perpetual
      attributes: full, newton on
      pair build: full/bin/atomonly
      stencil: full/bin/3d
      bin: standard
  Parameters for fire:
    dmax  delaystep dtgrow dtshrink alpha0 alphashrink tmax tmin   integrator   halfstepback   abcfire  
     0.1      5      1.1     0.5     0.1      0.99      10   0   eulerexplicit       no          no     
Per MPI rank memory allocation (min/avg/max) = 3.991 | 3.991 | 3.991 Mbytes
   Step          Temp          E_pair         E_mol          TotEng         Press     
         0   0             -9.6807333      0             -9.6807333      75031.283    
        10   1258.9515     -10.74211       0             -9.6029845     -147693.4     
        20   277.42808     -11.088969      0             -10.837947     -152312.16    
        30   2425.5067     -13.16052       0             -10.96587      -82290.86     
        40   3222.0454     -19.339806      0             -16.424432      71021.898    
        50   231.75372     -21.105337      0             -20.895641     -7609.6452    
        60   1432.8834     -22.393016      0             -21.096513      18288.862    
        70   9376.8086     -27.622663      0             -19.138329      153440.07    
        80   2811.4082     -34.297701      0             -31.75388      -238960.19    
        90   414.8741      -36.614918      0             -36.239531     -417072.05    
       100   3380.0706     -39.267878      0             -36.209519     -276003.74    
       110   34837.352     -61.858441      0             -30.336873      326124.62    
       120   3533.7862     -80.790186      0             -77.592742     -572328.46    
       130   16059.686     -88.92486       0             -74.393718     -637616.32    
       140   1647.7719     -91.430406      0             -89.939468     -1270460.7    
       150   419.31027     -92.132725      0             -91.753324     -1097012      
       160   1875.482      -93.56967       0             -91.872694     -1059230.7    
       170   817.47173     -95.972563      0             -95.232898     -982464.49    
       180   3172.8573     -97.450266      0             -94.579398     -1059611.8    
       190   163.20898     -97.975744      0             -97.828069     -1266340.2    
       200   923.27934     -98.684774      0             -97.849371     -1314220.7    
       210   1.4751859     -99.783135      0             -99.781801     -1351317.4    
       220   188.22479     -99.937283      0             -99.766973     -1335678.8    
       230   710.3817      -100.7743       0             -100.13153     -1326339.2    
       240   52.094793     -100.42492      0             -100.37778     -1547706.1    
       250   24.125861     -100.53965      0             -100.51782     -1436455.2    
       260   134.11839     -100.64383      0             -100.52247     -1444948.7    
       270   48.469754     -100.84308      0             -100.79923     -1453051.1    
       280   16.039908     -100.85851      0             -100.844       -1451078.6    
       290   142.94896     -100.97312      0             -100.84378     -1454918      
       300   1.0155031     -101.21698      0             -101.21606     -1486980.3    
       310   47.431812     -101.25914      0             -101.21622     -1456645.2    
       320   34.960361     -101.41543      0             -101.3838      -1474315.1    
       330   21.632455     -101.44202      0             -101.42245     -1485078.4    
       340   176.62734     -101.58508      0             -101.42526     -1509627.8    
       350   291.45591     -102.43266      0             -102.16894     -1557251.8    
       360   6.1402455     -102.50454      0             -102.49898     -1560000.7    
       370   73.703193     -102.56773      0             -102.50104     -1569950.2    
       380   513.28825     -103.00363      0             -102.53919     -1590547.7    
       390   107.07288     -103.28519      0             -103.18831     -1603287.3    
       400   19.051226     -103.33911      0             -103.32187     -1601935.7    
       410   132.56213     -103.44193      0             -103.32198     -1588845.9    
       420   12.215747     -103.76811      0             -103.75706     -1492393.1    
       430   23.260217     -103.83304      0             -103.81199     -1490484.3    
       440   176.97237     -112.101        0             -111.94087     -1703442.7    
       450   910.5249      -113.70047      0             -112.87661     -1395139.5    
       460   15.294474     -113.98224      0             -113.9684      -1545587.4    
       470   46.819474     -114.02468      0             -113.98231     -1548625.5    
       480   20.143931     -114.08844      0             -114.07022     -1574158.6    
       490   100.13571     -120.4847       0             -120.3941      -1729747.6    
       500   1204.0231     -121.06146      0             -119.97203     -1584742.1    
       510   161.63526     -121.19717      0             -121.05092     -1670141.7    
       520   1249.3344     -121.90646      0             -120.77604     -1429106.4    
       530   492.23967     -122.45622      0             -122.01083     -1628275.8    
       540   35.524142     -122.4841       0             -122.45196     -1656680.2    
       550   194.51912     -122.57021      0             -122.39421     -1624225      
       560   483.45483     -123.12953      0             -122.69209     -1633424.1    
       570   1.8369855     -123.29367      0             -123.29201     -1633154.8    
       580   48.864188     -123.33409      0             -123.28988     -1666072.6    
       590   344.58886     -123.66495      0             -123.35315     -1680339.3    
       600   2.0614543     -124.02857      0             -124.02671     -1750956.6    
       610   82.134268     -124.10326      0             -124.02895     -1688572.4    
       620   89.716272     -124.28626      0             -124.20509     -1705151.1    
       630   25.35876      -124.38348      0             -124.36053     -1762914      
       640   284.63941     -124.54775      0             -124.2902      -1782185.6    
       650   331.4113      -124.85275      0             -124.55289     -1829393.3    
       660   55.889586     -124.9001       0             -124.84953     -1807788.5    
       670   22.411475     -124.98426      0             -124.96398     -1813615.2    
       680   15.780379     -125.01458      0             -125.0003      -1791000.1    
       690   5.7927906     -125.02591      0             -125.02067     -1813530.6    
       700   28.404806     -125.04643      0             -125.02072     -1812927.2    
       710   10.970495     -125.10749      0             -125.09756     -1817627.8    
       720   5.4641157     -125.11479      0             -125.10984     -1807663.3    
       730   2.8452095     -125.11703      0             -125.11445     -1798488.8    
       740   14.603535     -125.12851      0             -125.1153      -1805163.1    
       750   28.165096     -125.14828      0             -125.12279     -1776874.9    
       760   0.1456617     -125.15302      0             -125.15289     -1799986.5    
       770   1.4996297     -125.15431      0             -125.15295     -1790782      
       780   9.6938044     -125.16112      0             -125.15235     -1787994.3    
       790   1.2466503     -125.16562      0             -125.1645      -1777288.2    
       800   0.059124719   -125.16896      0             -125.16891     -1792396.9    
       810   0.8285485     -125.16963      0             -125.16888     -1791368.4    
       820   6.0119232     -125.17409      0             -125.16865     -1792041.3    
       830   1.220551      -125.1733       0             -125.17219     -1769042.6    
       840   2.1224511     -125.17969      0             -125.17777     -1794518.8    
       850   0.031818878   -125.17995      0             -125.17992     -1789552.5    
       860   0.11926273    -125.18006      0             -125.17995     -1790844.6    
       870   0.9105665     -125.18055      0             -125.17973     -1789494.9    
       880   0.14716925    -125.18065      0             -125.18052     -1788967.3    
       890   0.0034832439  -125.18079      0             -125.18079     -1789775.4    
       900   0.061856828   -125.18085      0             -125.18079     -1790167.6    
       910   0.021175627   -125.18104      0             -125.18102     -1788053      
       920   0.051989729   -125.18111      0             -125.18107     -1789445.7    
       930   0.014054776   -125.18112      0             -125.18111     -1790113.1    
       940   0.060954288   -125.18116      0             -125.18111     -1789447.3    
       950   0.03066794    -125.1813       0             -125.18127     -1790451.6    
       960   0.012408036   -125.1813       0             -125.18129     -1789655.3    
       970   0.096782665   -125.18135      0             -125.18126     -1788716.6    
       980   0.0030530831  -125.18141      0             -125.1814      -1789964.3    
       990   0.029220893   -125.18144      0             -125.18142     -1789741.8    
      1000   0.00042694919 -125.18148      0             -125.18148     -1790531.7    
      1010   0.00052336828 -125.18148      0             -125.18148     -1789792.7    
      1020   0.0048289599  -125.18151      0             -125.1815      -1790146.5    
      1030   0.031607652   -125.18152      0             -125.18149     -1790418      
      1040   0.0023436337  -125.18153      0             -125.18153     -1790191.3    
      1050   0.00079175653 -125.18154      0             -125.18154     -1789856.9    
      1060   0.0052117485  -125.18153      0             -125.18153     -1790046.7    
      1070   0.037258459   -125.18156      0             -125.18153     -1789331.8    
      1080   0.0042723623  -125.18156      0             -125.18156     -1789982.2    
      1090   0.00073742194 -125.18158      0             -125.18158     -1789951.4    
      1100   0.0053158522  -125.18157      0             -125.18157     -1789895.9    
      1110   0.053917983   -125.18159      0             -125.18154     -1790186.8    
      1120   0.00072832218 -125.18159      0             -125.18159     -1790016.6    
      1130   0.0071696943  -125.18161      0             -125.1816      -1790178.5    
      1140   0.00056098223 -125.18161      0             -125.18161     -1790057.7    
      1150   0.0023048416  -125.18161      0             -125.18161     -1790144.9    
      1160   5.4582521e-05 -125.18161      0             -125.18161     -1789885.7    
      1170   0.00060399749 -125.18161      0             -125.18161     -1790041      
      1180   0.003915861   -125.18162      0             -125.18161     -1790169.2    
      1190   0.0011247515  -125.18161      0             -125.18161     -1790029.3    
      1200   2.4314364e-05 -125.18161      0             -125.18161     -1790013      
      1210   0.00044107035 -125.18162      0             -125.18162     -1789941.8    
      1220   0.0033941611  -125.18162      0             -125.18162     -1789943.1    
      1230   0.0001410064  -125.18163      0             -125.18163     -1789950.2    
      1240   0.00083375342 -125.18162      0             -125.18162     -1789894.8    
      1250   0.0076542329  -125.18162      0             -125.18162     -1790007.4    
      1260   0.000222193   -125.18163      0             -125.18163     -1789945.3    
      1270   0.0024231134  -125.18163      0             -125.18163     -1790083.5    
      1280   0.00021014902 -125.18162      0             -125.18162     -1789981.6    
      1290   5.5001825e-05 -125.18162      0             -125.18162     -1789978      
      1300   0.0003353991  -125.18162      0             -125.18162     -1790003.5    
      1310   0.00035853361 -125.18161      0             -125.18161     -1789991.1    
      1320   6.1064984e-07 -125.18163      0             -125.18163     -1790004.8    
      1330   5.3408365e-05 -125.18162      0             -125.18162     -1789963.1    
      1340   0.00033735786 -125.18162      0             -125.18162     -1789987      
      1350   4.8679749e-06 -125.18163      0             -125.18163     -1789912      
      1360   3.9454085e-06 -125.18164      0             -125.18164     -1789990.7    
      1370   4.6284233e-05 -125.18162      0             -125.18162     -1789961.4    
      1380   0.00032772334 -125.18162      0             -125.18162     -1789941      
      1390   2.1207686e-06 -125.18162      0             -125.18162     -1789983.8    
      1400   7.0897466e-05 -125.18162      0             -125.18162     -1789982.1    
      1410   4.7927586e-05 -125.18163      0             -125.18163     -1789975.7    
      1420   1.8945364e-05 -125.18164      0             -125.18164     -1789996.9    
      1430   9.0469514e-06 -125.18163      0             -125.18163     -1790027      
      1440   5.6390587e-06 -125.18162      0             -125.18162     -1789974.3    
      1450   5.3547238e-05 -125.18163      0             -125.18163     -1789966.9    
      1460   1.1280587e-05 -125.18163      0             -125.18163     -1789984.5    
      1470   9.5733067e-06 -125.18163      0             -125.18163     -1789981.4    
      1480   0.000122665   -125.18163      0             -125.18163     -1789946.7    
      1490   1.6359311e-05 -125.18162      0             -125.18162     -1789971      
      1500   1.9039529e-06 -125.18163      0             -125.18163     -1789975      
      1510   1.6281555e-05 -125.18162      0             -125.18162     -1789971.5    
      1520   5.3938246e-06 -125.18162      0             -125.18162     -1790002.7    
      1530   2.6604249e-06 -125.18162      0             -125.18162     -1789983      
      1540   2.0431261e-06 -125.18163      0             -125.18163     -1789999      
      1550   1.6307861e-06 -125.18163      0             -125.18163     -1789975.5    
      1560   7.7891021e-06 -125.18164      0             -125.18164     -1789967.8    
      1570   1.3477145e-07 -125.18163      0             -125.18163     -1789972.4    
      1580   2.2022074e-06 -125.18163      0             -125.18163     -1789977.4    
      1590   1.7682896e-05 -125.18163      0             -125.18163     -1789971.2    
      1600   3.9026085e-06 -125.18162      0             -125.18162     -1789978.4    
      1610   2.542235e-07  -125.18161      0             -125.18161     -1789975      
      1620   2.6568876e-06 -125.18163      0             -125.18163     -1789974.7    
      1630   1.6982272e-05 -125.18162      0             -125.18162     -1789982.3    
      1640   3.7102052e-07 -125.18164      0             -125.18164     -1789976.2    
      1650   3.8731179e-06 -125.18163      0             -125.18163     -1789979.1    
      1660   7.3208135e-08 -125.18162      0             -125.18162     -1789975.8    
      1670   1.2598144e-06 -125.18164      0             -125.18164     -1789976.5    
      1680   3.0279799e-06 -125.18161      0             -125.18161     -1789957.4    
      1690   9.9039528e-08 -125.18165      0             -125.18165     -1789971.7    
      1700   8.6239879e-09 -125.18163      0             -125.18163     -1789976.4    
      1710   1.164299e-07  -125.18162      0             -125.18162     -1789975      
      1720   8.7276409e-07 -125.18163      0             -125.18163     -1789974.9    
      1730   4.7692275e-06 -125.18163      0             -125.18163     -1789979.5    
      1740   8.1100856e-09 -125.18164      0             -125.18164     -1789975.3    
      1750   1.1763376e-07 -125.18163      0             -125.18163     -1789975.7    
      1760   8.6044736e-07 -125.18163      0             -125.18163     -1789974.2    
      1770   1.1822778e-07 -125.18163      0             -125.18163     -1789974.9    
      1780   1.3771699e-08 -125.18163      0             -125.18163     -1789975.5    
      1790   1.3652388e-07 -125.18163      0             -125.18163     -1789975.8    
      1800   3.6148813e-08 -125.18164      0             -125.18164     -1789974.9    
      1810   2.2634372e-08 -125.18164      0             -125.18164     -1789975.3    
      1820   2.316721e-07  -125.18163      0             -125.18163     -1789976.2    
      1830   8.6125192e-09 -125.18163      0             -125.18163     -1789975.6    
      1840   6.0489707e-08 -125.18162      0             -125.18162     -1789975.2    
      1850   2.4418025e-09 -125.18162      0             -125.18162     -1789976.9    
      1860   8.269515e-10  -125.18163      0             -125.18163     -1789975.4    
      1870   9.9158759e-09 -125.18162      0             -125.18162     -1789975.7    
      1880   7.2619122e-08 -125.18164      0             -125.18164     -1789975.7    
      1890   1.0189496e-09 -125.18164      0             -125.18164     -1789975.4    
      1900   1.5091774e-08 -125.18164      0             -125.18164     -1789975.3    
      1910   9.0879412e-08 -125.18163      0             -125.18163     -1789975.8    
      1920   4.3292078e-09 -125.18163      0             -125.18163     -1789975.4    
      1930   4.4363156e-09 -125.18163      0             -125.18163     -1789975.4    
      1940   2.3971138e-09 -125.18163      0             -125.18163     -1789975.5    
      1950   1.07094e-08   -125.18163      0             -125.18163     -1789975.8    
      1960   3.5829396e-10 -125.18163      0             -125.18163     -1789975.8    
      1970   2.9342741e-09 -125.18163      0             -125.18163     -1789975.4    
      1980   1.1533329e-09 -125.18163      0             -125.18163     -1789975.5    
      1990   2.6985922e-10 -125.18163      0             -125.18163     -1789975.4    
      2000   4.4784801e-09 -125.18163      0             -125.18163     -1789975.5    
      2010   1.2372394e-11 -125.18162      0             -125.18162     -1789975.5    
      2020   1.2176934e-09 -125.18162      0             -125.18162     -1789975.6    
      2030   9.9540056e-09 -125.18162      0             -125.18162     -1789975.7    
      2040   3.6926479e-10 -125.18162      0             -125.18162     -1789975.5    
      2050   2.5773277e-11 -125.18162      0             -125.18162     -1789975.5    
      2060   1.2003829e-09 -125.18162      0             -125.18162     -1789975.6    
      2070   1.4105125e-09 -125.18162      0             -125.18162     -1789975.6    
      2080   5.0844724e-10 -125.18162      0             -125.18162     -1789975.6    
      2090   3.0350205e-09 -125.18162      0             -125.18162     -1789975.6    
      2100   1.2915885e-10 -125.18162      0             -125.18162     -1789975.5    
      2110   7.6023309e-10 -125.18162      0             -125.18162     -1789975.6    
      2120   3.2408495e-10 -125.18162      0             -125.18162     -1789975.6    
      2130   1.0934124e-10 -125.18162      0             -125.18162     -1789975.6    
      2140   9.1957308e-10 -125.18162      0             -125.18162     -1789975.7    
      2150   9.4048554e-12 -125.18162      0             -125.18162     -1789975.6    
      2160   2.946939e-10  -125.18162      0             -125.18162     -1789975.6    
      2170   2.4707778e-09 -125.18162      0             -125.18162     -1789975.6    
      2180   1.0822174e-10 -125.18161      0             -125.18161     -1789975.6    
      2190   1.9530912e-11 -125.18161      0             -125.18161     -1789975.6    
      2200   3.0883249e-10 -125.18161      0             -125.18161     -1789975.6    
      2210   2.2948939e-10 -125.18161      0             -125.18161     -1789975.6    
      2220   9.082108e-11  -125.18161      0             -125.18161     -1789975.5    
      2230   6.8798274e-10 -125.18163      0             -125.18163     -1789975.5    
      2240   3.5887008e-11 -125.18161      0             -125.18161     -1789975.6    
      2250   1.871261e-10  -125.18161      0             -125.18161     -1789975.6    
      2260   7.1254812e-11 -125.18161      0             -125.18161     -1789975.6    
      2270   3.3385345e-11 -125.18163      0             -125.18163     -1789975.6    
      2280   1.8439203e-10 -125.18163      0             -125.18163     -1789975.5    
      2290   3.9730522e-12 -125.18163      0             -125.18163     -1789975.6    
      2297   3.5078617e-11 -125.18163      0             -125.18163     -1789975.6    
Loop time of 14.1822 on 1 procs for 2297 steps with 8 atoms

100.1% CPU use with 1 MPI tasks x 1 OpenMP threads

Minimization stats:
  Stopping criterion = energy tolerance
  Energy initial, next-to-last, final = 
     -9.68073326514599  -125.181627734846  -125.181627734841
  Force two-norm initial, final = 39.270622 5.4677169e-06
  Force max component initial, final = 26.64867 2.232039e-06
  Final line search alpha, max atom move = 0 0
  Iterations, force evaluations = 2297 2482

MPI task timing breakdown:
Section |  min time  |  avg time  |  max time  |%varavg| %total
---------------------------------------------------------------
Pair    | 14.145     | 14.145     | 14.145     |   0.0 | 99.73
Neigh   | 0.00026223 | 0.00026223 | 0.00026223 |   0.0 |  0.00
Comm    | 0.025062   | 0.025062   | 0.025062   |   0.0 |  0.18
Output  | 0.0023473  | 0.0023473  | 0.0023473  |   0.0 |  0.02
Modify  | 0          | 0          | 0          |   0.0 |  0.00
Other   |            | 0.009989   |            |       |  0.07

Nlocal:              8 ave           8 max           8 min
Histogram: 1 0 0 0 0 0 0 0 0 0
Nghost:           2462 ave        2462 max        2462 min
Histogram: 1 0 0 0 0 0 0 0 0 0
Neighs:             67 ave          67 max          67 min
Histogram: 1 0 0 0 0 0 0 0 0 0
FullNghs:         6654 ave        6654 max        6654 min
Histogram: 1 0 0 0 0 0 0 0 0 0

Total # of neighbors = 6654
Ave neighs/atom = 831.75
Neighbor list builds = 2
Dangerous builds = 0
write_data ./StructureDump/sample.10.dat 
System init for write_data ...
variable etot equal etotal
variable ptot equal press
variable pairp equal epair
variable numat equal atoms
run 0
WARNING: No fixes with time integration, atoms won't move (src/verlet.cpp:60)
Per MPI rank memory allocation (min/avg/max) = 3.991 | 3.991 | 3.991 Mbytes
   Step          Temp          E_pair         E_mol          TotEng         Press     
      2297   3.5078617e-11 -125.18163      0             -125.18163     -1165593.2    
Loop time of 3.9644e-05 on 1 procs for 0 steps with 8 atoms

0.0% CPU use with 1 MPI tasks x 1 OpenMP threads

MPI task timing breakdown:
Section |  min time  |  avg time  |  max time  |%varavg| %total
---------------------------------------------------------------
Pair    | 0          | 0          | 0          |   0.0 |  0.00
Neigh   | 0          | 0          | 0          |   0.0 |  0.00
Comm    | 0          | 0          | 0          |   0.0 |  0.00
Output  | 0          | 0          | 0          |   0.0 |  0.00
Modify  | 0          | 0          | 0          |   0.0 |  0.00
Other   |            | 3.964e-05  |            |       |100.00

Nlocal:              8 ave           8 max           8 min
Histogram: 1 0 0 0 0 0 0 0 0 0
Nghost:           2492 ave        2492 max        2492 min
Histogram: 1 0 0 0 0 0 0 0 0 0
Neighs:             69 ave          69 max          69 min
Histogram: 1 0 0 0 0 0 0 0 0 0
FullNghs:         6644 ave        6644 max        6644 min
Histogram: 1 0 0 0 0 0 0 0 0 0

Total # of neighbors = 6644
Ave neighs/atom = 830.5
Neighbor list builds = 0
Dangerous builds = 0
print "${etot} ${pairp} ${ptot} ${numat} " append Summary.dat screen no
