mass 1 51.996100
pair_style hybrid/overlay soft 1.5 mliap model mliappy LATER descriptor ace coupling_coefficients.yace
Loading python model deferred.
pair_coeff * * soft 100.0
pair_coeff * * mliap   Cr

thermo 10
velocity all create 0.0001 4928459 dist gaussian
Loading python model complete.
min_style  fire
min_modify integrator eulerexplicit tmax 10.0 tmin 0.0 delaystep 5 dtgrow 1.1 dtshrink 0.5 alpha0 0.1 alphashrink 0.99 vdfmax 100000 halfstepback no initialdelay no
minimize 1e-12 1e-12 10000 100000
Neighbor list info ...
  update: every = 1 steps, delay = 0 steps, check = yes
  max neighbors/atom: 2000, page size: 100000
  master list distance cutoff = 13.209389
  ghost atom cutoff = 13.209389
  binsize = 6.6046944, bins = 1 1 1
  2 neighbor lists, perpetual/occasional/extra = 2 0 0
  (1) pair soft, perpetual, half/full trim from (2)
      attributes: half, newton on, cut 3.5
      pair build: halffull/trim/newton
      stencil: none
      bin: none
  (2) pair mliap, perpetual
      attributes: full, newton on
      pair build: full/bin/atomonly
      stencil: full/bin/3d
      bin: standard
  Parameters for fire:
    dmax  delaystep dtgrow dtshrink alpha0 alphashrink tmax tmin   integrator   halfstepback   abcfire  
     0.1      5      1.1     0.5     0.1      0.99      10   0   eulerexplicit       no          no     
Per MPI rank memory allocation (min/avg/max) = 3.992 | 3.992 | 3.992 Mbytes
   Step          Temp          E_pair         E_mol          TotEng         Press     
         0   0             -8.6738237      0             -8.6738237      45892.77     
        10   1462.9892     -10.010823      0             -8.6870799     -210603.15    
        20   4007.636      -11.833262      0             -8.2070692     -264641.28    
        30   25508.004     -21.766493      0              1.3136855     -521856.02    
        40   4850.2082     -25.54044       0             -21.151869     -756032.37    
        50   1831.8017     -33.107525      0             -31.450072     -1162669.3    
        60   343.82532     -37.422614      0             -37.111514     -1189236.6    
        70   6717.3249     -39.175868      0             -33.097891     -972921.41    
        80   3109.7337     -41.350443      0             -38.536691     -1175938.9    
        90   118.04509     -45.348301      0             -45.241491     -1402242.2    
       100   2146.9706     -47.181128      0             -45.238504     -1366671.6    
       110   1879.3547     -53.802968      0             -52.102489     -1470079.7    
       120   1482.0341     -56.889965      0             -55.548989     -1706538.7    
       130   4641.7234     -59.608222      0             -55.408293     -1487080.1    
       140   157.58389     -61.712646      0             -61.57006      -1585941.3    
       150   1185.2523     -62.711806      0             -61.639365     -1569079.2    
       160   1538.669      -65.930973      0             -64.538753     -1782130.2    
       170   770.97686     -66.723462      0             -66.025866     -1746223.7    
       180   4566.9963     -70.271344      0             -66.13903      -1827513.7    
       190   9742.425      -76.171841      0             -67.35669      -2173698.3    
       200   39.989        -77.428551      0             -77.392369     -2192357.6    
       210   602.59665     -77.928272      0             -77.38303      -2193189.1    
       220   4004.448      -81.631212      0             -78.007904     -2382821.9    
       230   65.646118     -83.624717      0             -83.565319     -2419504.8    
       240   548.16971     -83.091798      0             -82.595802     -2347412.5    
       250   200.15969     -83.846821      0             -83.665713     -2425941.6    
       260   2465.8201     -85.027841      0             -82.796715     -2555737.5    
       270   296.29299     -85.632346      0             -85.364254     -2601769.3    
       280   2117.3568     -87.219884      0             -85.304055     -2675825.7    
       290   46340.074     -111.24419      0             -69.314721     -2293710      
       300   6805.3927     -120.75909      0             -114.60143     -3303069.8    
       310   2329.8372     -123.87958      0             -121.77149     -3609158.3    
       320   7329.7083     -134.53971      0             -127.90763     -3711133.6    
       330   90.985583     -136.01586      0             -135.93353     -3930892.7    
       340   425.47039     -136.4201       0             -136.03512     -4008774.3    
       350   108.98559     -136.82825      0             -136.72964     -4102814.5    
       360   313.38774     -137.03654      0             -136.75298     -4124670      
       370   6.693743      -129.68977      0             -129.68372     -3905631.1    
       380   64.596547     -130.60811      0             -130.54966     -3893242.5    
       390   714.35575     -130.51846      0             -129.87209     -3914257.1    
       400   767.47908     -130.81855      0             -130.12412     -3852055.3    
       410   65.467623     -130.96872      0             -130.90949     -3795194.9    
       420   212.37859     -131.11056      0             -130.9184      -3745929.3    
       430   166.26437     -139.88467      0             -139.73423     -4013500.9    
       440   70.55631      -131.48367      0             -131.41983     -3742763.8    
       450   303.36354     -140.23439      0             -139.9599      -3990813      
       460   7.1146361     -140.39455      0             -140.38812     -3997645.4    
       470   74.33293      -131.80376      0             -131.73651     -3713193.5    
       480   1503.5224     -138.97026      0             -137.60984     -3857460.7    
       490   273.23577     -139.41955      0             -139.17232     -3836214.1    
       500   78.996971     -139.47529      0             -139.40381     -3848843      
       510   388.36331     -139.82549      0             -139.47409     -3856166.2    
       520   1222.7787     -140.47925      0             -139.37286     -3708316.8    
       530   0.54012284    -140.5494       0             -140.54891     -3777626.5    
       540   9.6296358     -140.5569       0             -140.54819     -3784031.3    
       550   10.223257     -140.56218      0             -140.55293     -3792111.3    
       560   0.056922472   -140.56285      0             -140.56279     -3786809.3    
       570   0.32556148    -140.56314      0             -140.56285     -3786831.4    
       580   0.049391005   -140.56326      0             -140.56322     -3786106.3    
       590   0.010050705   -140.56325      0             -140.56324     -3786186.3    
       600   6.1877652e-05 -140.56328      0             -140.56328     -3786449      
       610   0.0024207049  -140.56328      0             -140.56328     -3786214.7    
       620   0.00046006025 -140.56328      0             -140.56328     -3786211.1    
       630   3.996434e-05  -140.56328      0             -140.56328     -3786292.4    
       640   0.00015130308 -140.56327      0             -140.56327     -3786231.7    
       650   5.379245e-08  -140.56328      0             -140.56328     -3786249.6    
       660   3.0378558e-06 -140.56328      0             -140.56328     -3786249.6    
       670   9.2096776e-07 -140.56328      0             -140.56328     -3786255.3    
       680   1.4929214e-07 -140.56327      0             -140.56327     -3786252.8    
       690   3.9704841e-07 -140.56327      0             -140.56327     -3786251.9    
       700   4.9610722e-08 -140.56327      0             -140.56327     -3786252.4    
       710   5.7817209e-09 -140.56327      0             -140.56327     -3786252.7    
       720   1.3577444e-10 -140.56327      0             -140.56327     -3786252.2    
       730   3.551835e-09  -140.56327      0             -140.56327     -3786252.6    
       740   1.2211433e-09 -140.56327      0             -140.56327     -3786252.6    
       750   1.3033219e-10 -140.56327      0             -140.56327     -3786252.4    
       760   5.9606387e-12 -140.56327      0             -140.56327     -3786252.5    
       770   4.889831e-11  -140.56327      0             -140.56327     -3786252.5    
       780   8.4503319e-13 -140.56327      0             -140.56327     -3786252.5    
       790   1.6290803e-12 -140.56327      0             -140.56327     -3786252.5    
       800   4.0760015e-14 -140.56327      0             -140.56327     -3786252.5    
       810   6.3706381e-15 -140.56327      0             -140.56327     -3786252.5    
       811   8.4145192e-15 -140.56327      0             -140.56327     -3786252.5    
Loop time of 4.99393 on 1 procs for 811 steps with 8 atoms

100.5% CPU use with 1 MPI tasks x 1 OpenMP threads

Minimization stats:
  Stopping criterion = energy tolerance
  Energy initial, next-to-last, final = 
     -8.67382368058283  -140.563268925451  -140.563268925518
  Force two-norm initial, final = 45.093393 1.3260449e-07
  Force max component initial, final = 29.537549 4.8262619e-08
  Final line search alpha, max atom move = 0 0
  Iterations, force evaluations = 811 875

MPI task timing breakdown:
Section |  min time  |  avg time  |  max time  |%varavg| %total
---------------------------------------------------------------
Pair    | 4.9806     | 4.9806     | 4.9806     |   0.0 | 99.73
Neigh   | 0.00050333 | 0.00050333 | 0.00050333 |   0.0 |  0.01
Comm    | 0.0084864  | 0.0084864  | 0.0084864  |   0.0 |  0.17
Output  | 0.00081899 | 0.00081899 | 0.00081899 |   0.0 |  0.02
Modify  | 0          | 0          | 0          |   0.0 |  0.00
Other   |            | 0.00349    |            |       |  0.07

Nlocal:              8 ave           8 max           8 min
Histogram: 1 0 0 0 0 0 0 0 0 0
Nghost:           2312 ave        2312 max        2312 min
Histogram: 1 0 0 0 0 0 0 0 0 0
Neighs:             72 ave          72 max          72 min
Histogram: 1 0 0 0 0 0 0 0 0 0
FullNghs:         6658 ave        6658 max        6658 min
Histogram: 1 0 0 0 0 0 0 0 0 0

Total # of neighbors = 6658
Ave neighs/atom = 832.25
Neighbor list builds = 4
Dangerous builds = 0
write_data ./StructureDump/sample.7.dat 
System init for write_data ...
variable etot equal etotal
variable ptot equal press
variable pairp equal epair
variable numat equal atoms
run 0
WARNING: No fixes with time integration, atoms won't move (src/verlet.cpp:60)
Per MPI rank memory allocation (min/avg/max) = 3.992 | 3.992 | 3.992 Mbytes
   Step          Temp          E_pair         E_mol          TotEng         Press     
       811   8.4145192e-15 -140.56327      0             -140.56327     -3787784.9    
Loop time of 3.2534e-05 on 1 procs for 0 steps with 8 atoms

92.2% CPU use with 1 MPI tasks x 1 OpenMP threads

MPI task timing breakdown:
Section |  min time  |  avg time  |  max time  |%varavg| %total
---------------------------------------------------------------
Pair    | 0          | 0          | 0          |   0.0 |  0.00
Neigh   | 0          | 0          | 0          |   0.0 |  0.00
Comm    | 0          | 0          | 0          |   0.0 |  0.00
Output  | 0          | 0          | 0          |   0.0 |  0.00
Modify  | 0          | 0          | 0          |   0.0 |  0.00
Other   |            | 3.253e-05  |            |       |100.00

Nlocal:              8 ave           8 max           8 min
Histogram: 1 0 0 0 0 0 0 0 0 0
Nghost:           2192 ave        2192 max        2192 min
Histogram: 1 0 0 0 0 0 0 0 0 0
Neighs:             72 ave          72 max          72 min
Histogram: 1 0 0 0 0 0 0 0 0 0
FullNghs:         6682 ave        6682 max        6682 min
Histogram: 1 0 0 0 0 0 0 0 0 0

Total # of neighbors = 6682
Ave neighs/atom = 835.25
Neighbor list builds = 0
Dangerous builds = 0
print "${etot} ${pairp} ${ptot} ${numat} " append Summary.dat screen no
Total wall time: 0:00:05
