mc_0.data (written by ASE) 

8 	 atoms 
2  atom types
0.0      4.2999999999999998  xlo xhi
0.0      4.2999999999999998  ylo yhi
0.0      8.5999999999999996  zlo zhi


Atoms 

     1   2                       0                       0                       0
     2   2                       0      2.1499999999999999      2.1499999999999999
     3   2      2.1499999999999999                       0      2.1499999999999999
     4   1      2.1499999999999999      2.1499999999999999                       0
     5   2                       0                       0      4.2999999999999998
     6   2                       0      2.1499999999999999      6.4499999999999984
     7   2      2.1499999999999999                       0      6.4499999999999984
     8   1      2.1499999999999999      2.1499999999999999      4.2999999999999998
