LAMMPS data file via write_data, version 7 Feb 2024, timestep = 98, units = metal

44 atoms
3 atom types

0 4.571715029668415 xlo xhi
0 2.2858575148342073 ylo yhi
0 32.002005207678906 zlo zhi
0 4.571715029668415 20.572717633507864 xy xz yz

Masses

1 51.9961
2 28.085
3 50.9415

Atoms # atomic

5 1 4.7005122984569665 3.8197789324307516 3.022170284688865 0 0 0
11 2 2.312282441289134 1.321155138048978 0.055271146985258646 0 0 0
18 2 1.3237256216107613 5.070599801756451 4.495047514608434 1 0 0
25 3 3.5111012281847405 2.5713289954392535 1.5387783529409755 0 0 0
26 3 2.403985753282535 3.8319908246792016 3.0123093563898125 0 0 0
28 3 1.2129341820829787 2.585479455737959 1.5253183200351987 0 0 0
31 3 0.011333722017153113 1.3300540162690202 0.030936013324240577 0 0 0
34 3 3.6069097990945442 5.0663627978787265 4.473365919816356 0 0 0
4 1 2.537654383294514 6.336694612480184 8.959654909260601 1 0 0
14 2 5.970816810399969 7.491525833374826 10.440585685539213 0 1 0
15 2 2.5060340052183308 3.9966428326377006 5.968313057439504 0 1 0
16 2 4.825554280251554 6.342288706116348 8.964336437632499 0 1 0
17 2 4.779259707464797 3.996076372798365 5.9645292074258265 0 1 0
27 3 1.3792044650006225 5.182466844583473 7.469787719098196 1 1 0
30 3 3.6864799204987078 7.490950687432494 10.435007529916756 0 1 0
43 3 3.6658348626837682 5.18629154049157 7.475540654738106 0 1 0
6 2 2.547408079171933 8.614622769807877 11.912066827489479 1 0 0
29 3 4.82706558558823 8.614351571688552 11.923670836399108 0 0 0
2 1 4.831049358728421 10.827273068296682 14.886629681490517 0 0 0
9 2 3.743837642404621 14.131713571548394 19.607428366208303 1 0 0
13 2 2.6083240650537074 13.012354014193622 18.017480642179333 1 0 0
20 2 5.945150559214314 11.905885246366907 16.389822356798636 0 0 0
21 2 5.918122500934732 14.1283917767054 19.568834958722288 0 0 0
23 3 3.726801367805006 11.893512374737373 16.39060834317676 1 0 0
32 3 2.5451145910648605 10.817666862500603 14.925141189886299 1 0 0
33 3 5.981040490677994 9.723540323978078 13.417857435598917 0 0 0
38 3 7.06979550599817 13.019836785331846 17.96262093518704 0 1 0
42 3 4.835659976432379 13.014960319605397 17.970672321059208 1 0 0
44 3 3.683723691837799 9.726086721716683 13.425075726175276 1 0 0
7 2 3.618548322689426 16.3515013001667 22.400144392159124 1 0 0
37 3 7.093728032174897 15.224574462575475 20.97454295269197 0 0 0
41 3 4.882555484112852 15.23157410332253 21.14812010832747 1 1 0
1 1 7.371903103855534 17.492104363882905 24.1765317496649 0 0 0
8 2 5.757354091528397 16.12447770938441 24.98276347277346 1 1 0
22 2 4.240476110319324 17.11908766560652 25.950259635083363 1 1 0
36 3 4.689830925821601 17.439398496687527 23.725470329128537 1 1 0
40 3 6.0983140923433075 16.355394753058107 22.63847741083801 1 1 0
3 1 7.942956562629487 20.663462627802794 30.525818400828335 1 1 0
10 2 6.721903404853556 19.452470442753484 29.031431173961877 1 1 0
12 2 6.8160020412898135 17.12166772236586 26.287780878286565 1 1 0
19 2 4.513009621474517 19.451855731450426 29.113231282218166 1 1 0
24 3 7.912859689971916 18.274256306030622 27.695142371885712 0 1 0
35 3 5.5078832832223235 18.271774023535208 27.491125781835606 1 1 0
39 3 5.683178740485853 20.660175796511858 30.573909287719687 1 1 0

Velocities

5 -0.001576724697579399 0.0012319756012995088 0.002620309909512974
11 0.0005522004418917185 0.0008697683325584818 0.0011946176271473167
18 0.0009229798537226259 -0.0014290958101762176 0.003028078886702637
25 0.0017510799166289088 -0.0009633230718571938 0.000881333346569014
26 -9.376149541038233e-05 -0.0013931411452665346 -0.0014984908316228076
28 -0.0023115008681580673 -0.0005371778090549693 -0.0021746689353595357
31 0.0017796645059273421 0.0031381967209880286 0.0017936467617197314
34 -3.990391753449759e-05 0.0020393028039828215 -0.001967664800982323
4 -0.00027035592968707104 -0.0009128237012809134 -0.0015340799331722687
14 0.002829259967273907 0.0012983742685594366 0.0008523105850857113
15 0.0007759172383082473 0.0014317992533301022 -0.0004141935976044561
16 -0.0013627278534513554 -0.001311076637163066 8.490886533276563e-05
17 0.001042319783180795 0.0008149667197007612 0.0005538504113501369
27 0.0009528915055580871 -0.0007960842470582154 0.0019491330057675863
30 -0.0011820953076584584 -0.0002032441201190584 -0.0012910121718092478
43 -0.0005566329002706497 -0.0012293042894964837 -0.0003134790653106817
6 -0.0003120978555481841 -0.0008817480342066249 -0.0012216829525690104
29 2.5935283345862698e-05 -0.0005659493973443629 0.0006730177274766083
2 0.0015631485173462265 -0.002871119720516417 -0.0004571209064887221
9 0.000316538267971055 0.0004763046359670094 0.0009432989970288299
13 -0.000660861503505191 -0.0014839614694365484 -0.0034984824131974505
20 -0.000612830078066527 -0.001447864717913265 -0.0026293968664993215
21 -0.0013991451720255872 -0.0015656962963593525 0.0020598509448660567
23 -0.001243286983805165 -0.0005654779659033893 6.872112076644481e-05
32 -0.0005433584528414399 -0.0018628552844009362 0.0010293225283600357
33 -0.00029393424475295963 0.0005833467140739341 7.103520389726042e-05
38 -0.0013875446836279386 -0.0021327238381129063 -0.0017170908864231342
42 4.605075152131973e-05 0.00020338858795780173 0.0007436772300304799
44 -0.0001505264269102 0.001620173102484704 -0.00029273954134729927
7 -0.0018499230253949226 -0.0010241260876995893 -0.002404006433780931
37 -0.0004761317445445181 0.002331084911440159 -0.00041976337044967183
41 0.00015901657789240564 -0.001066498999323685 2.7774834653494362e-05
1 0.0028092304296935123 0.002329508705644386 -0.0006253294906123719
8 0.00021578902874857907 -0.0004888388820536099 -0.0006783478328021551
22 -0.0005839220762418099 0.002097122404431198 -0.001338068639610759
36 -0.0007350978364232552 -0.0006812956794646943 0.00038616768011066053
40 -0.0026509897281461504 0.0005412792255042712 -0.0010993066291699204
3 0.0012710975525181793 0.00024225424357885513 0.003210951024308962
10 -0.0009305020991374824 -0.00013696308722236497 0.0002169655017892285
12 -0.0001787237935569571 0.0009939690786311245 -0.0016513003861677758
19 0.0015095326641273068 0.0017129470730510297 0.0007574098448594839
24 0.0020192061614028073 -0.0008772688711492561 0.0002828159730037829
35 -0.0007105327037906373 0.0009968011391964955 0.0003716724341274044
39 0.0016155099159882627 0.0014414299115195542 0.0014993837726555534
