LAMMPS data file via write_data, version 7 Feb 2024, timestep = 34, units = metal

23 atoms
4 atom types

0 2.2858575148342073 xlo xhi
0 2.2858575148342073 ylo yhi
0 52.57472284118677 zlo zhi
0 38.85957775218152 2.2858575148342073 xy xz yz

Masses

1 51.9961
2 55.845
3 28.085
4 50.9415

Atoms # atomic

11 4 5.226819094128874 1.5541876827390941 5.389831479134078 0 0 0
15 2 1.6722831602362715 1.577695925405838 1.56800241026046 0 0 0
20 2 3.7538003150896775 0.4614172876668985 3.5700022551643387 0 0 0
22 2 39.364403087987284 2.702545519406895 52.36646777720095 1 0 -1
4 3 6.787124424453663 1.6373876895673518 7.434779334800866 0 0 0
3 3 8.879176777395289 1.5280290870256215 10.677903467337247 1 0 0
13 4 7.914419189634591 0.46051423657302604 9.088893418369839 0 1 0
18 2 9.837641525987852 2.5924462452561157 12.257626078200294 0 0 0
1 1 10.850699672351432 1.3766897219727368 13.860864845911985 0 0 0
17 2 13.527156976945257 2.3385232117590133 15.677582164019437 0 0 0
5 4 13.675883905021198 0.9784706756364433 17.583982618564768 0 1 0
19 2 14.667879187779707 2.001115331971202 19.320340720219214 1 0 0
2 3 17.35055860631489 3.043052610772861 21.371563032349872 0 0 0
12 4 17.965169270817313 2.9675920444994697 23.988261127879316 1 0 0
21 2 19.147022692806125 1.8476890712017768 25.795848637628847 1 1 0
6 4 20.542479663841924 3.0379258412976284 27.70874350806727 1 0 0
8 4 23.874667667767767 2.7452911075662305 29.809684162815046 0 0 0
10 4 25.800006421975105 3.3609335676539764 32.089240429865285 0 0 0
7 4 30.835716825104676 3.2362879882616253 41.43290828812395 1 1 0
14 4 34.041001402423824 3.0941160168622677 45.57843382609125 1 1 0
16 2 29.45023246184083 2.3623339474537617 39.40690889971266 1 1 0
23 2 34.26320264024211 4.046788237293882 43.38394404994253 0 0 0
9 4 36.91054401942033 4.000640932979302 47.91522254908367 1 1 0

Velocities

11 0.0003266888565306793 0.0006529809649076596 0.0008790811613601633
15 0.00047211417257296415 0.0010334358207731917 -0.00030371736319663873
20 -0.0005114551044504124 -0.0010060633572772468 -0.001872617516562451
22 -0.0004909812413367471 0.0015046456679494668 -0.0009580445373424475
4 -0.0005497206667218046 -0.0014431374357265713 -0.002024968031445264
3 0.001544947581762219 0.00012648832564283373 0.004423014862265068
13 -0.0005728521872258395 -0.0010924175869483784 -0.002601067667613438
18 0.0005762701040478678 -0.0009927704271698202 0.0021342448339477294
1 0.0026813306127868833 0.002246721890451417 -0.0006036160445679939
17 0.000660791662975954 0.000596569068994294 0.00038189213162475856
5 -0.001716813475339775 0.001159771593179453 0.0026658723903687574
19 0.00099169148190641 0.0012325565351890212 0.0005260614866163657
2 0.0019418131959546409 -0.004104249522454514 -0.0005614974148133796
12 -0.00021532497232396066 0.0007450815119419397 -0.0012312975129171076
21 -0.0010683565359482423 -0.001089516638559027 0.0014485050701208597
6 -0.00031422795365058985 -0.0006458487170349159 -0.000912716490652014
8 7.722437134202698e-05 -0.0003544885683051918 -0.0005098085908540922
10 -0.0007728030502090472 -9.355653515037516e-05 0.00015410729121897716
7 -0.001454595816683634 -0.0007514285708363449 -0.001789463554050514
14 0.0020152328834293367 0.0009708119153331864 0.0006252447970510406
16 -0.0010425642587795706 -0.000909184283523141 4.976799936248683e-05
23 -0.0013029359886192408 -0.0006038390081100397 8.162366770071448e-05
9 0.00015193455094312562 0.0003612095960544519 0.0006927168757520837
