ats_19.data (written by ASE) 

8 	 atoms 
2  atom types
0.0      4.5717150296684146  xlo xhi
0.0      2.2858575148342073  ylo yhi
0.0      9.1434300593368292  zlo zhi
                      0      2.2858575148342073                       0  xy xz yz


Atoms 

     1   2      1.4802786596710007     0.50205154063213286      5.0801030981523425
     2   2      2.7163656098121085     0.58339970445347777      8.4159135431168668
     3   2      5.9996373922727413      1.5996083966170871      8.0249326518446988
     4   2       4.497191924807467      1.2630196593082381      4.7166435785057095
     5   2      2.6439473283868078       1.194681561204501       5.602058520387728
     6   2      1.9641409546524973      0.1977924817996905      1.0027814054096773
     7   1      4.0550113650923203     0.21164926634212053       2.966025783076188
     8   1       1.918520088531543      1.1600058540059326      3.3767215125900663
