ats_48.data (written by ASE) 

9 	 atoms 
2  atom types
0.0      2.2858575148342073  xlo xhi
0.0      20.572717633507864  ylo yhi
0.0      2.2858575148342073  zlo zhi
     11.429287574171036                       0                       0  xy xz yz


Atoms 

     1   2       5.704843344099892      6.0505768171483174      2.0846892898510485
     2   2      5.9822495820435195      7.3477889397720473     0.89288855277939305
     3   2      10.911663760926274      13.335261889718113      1.8761175598602702
     4   2      1.9123598272465319      1.7020039564226623      1.7028055300316678
     5   2      2.8413201847646548      3.8520183015680627      1.4412909519867048
     6   2       10.95323455900164      16.260471718855168      1.7618770841030631
     7   2      8.4917579659241529      10.608051002471846      1.3404918907700192
     8   1      7.5605410423613639      8.5755217335476068      2.1967373191833874
     9   1      11.740980687153877      14.608805839373822      1.2504430372696878
