ats_5.data (written by ASE) 

5 	 atoms 
2  atom types
0.0      2.2858575148342073  xlo xhi
0.0      11.429287574171036  ylo yhi
0.0      2.2858575148342073  zlo zhi


Atoms 

     1   2      1.2177310066537472      5.3076589951766637      1.8812575779047138
     2   2      1.0682796820776714      3.1109564186519565     0.97620855803467643
     3   2     0.96175387817367675      6.6835221377945508      1.9865297024446436
     4   2      1.1768257945329199      1.5032440585884981      1.6175905423025472
     5   1     0.66509086386889238      8.6494712614018034     0.50063241644799705
