ats_14.data (written by ASE) 

9 	 atoms 
2  atom types
0.0      6.8575725445026219  xlo xhi
0.0      2.2858575148342073  ylo yhi
0.0      6.8575725445026219  zlo zhi
                      0     -2.2858575148342073                       0  xy xz yz


Atoms 

     1   2       6.338459063622329      0.9372381047928745      1.6438053399354142
     2   1      4.0200073279198376      3.9339799112941654      5.9133629256638045
     3   1      3.6544387304597699      1.5328256835253078      4.4622063402634948
     4   1      3.5974669583386465       2.153416831246616       1.637857986314021
     5   1      7.6726016797707759       1.395086383861545      1.4547383926495727
     6   1      7.4717273184635493      2.1325360685664951      4.0794480205202941
     7   1      9.4840821301950591      2.6606950758737504      6.5867721553844918
     8   1      2.2437491014881923      2.9720502086111442      3.1713944180136471
     9   1       6.886221330140696      4.4369838116288038      6.6746536235286689
