ats_44.data (written by ASE) 

9 	 atoms 
2  atom types
0.0      2.2858575148342073  xlo xhi
0.0      2.2858575148342073  ylo yhi
0.0      20.572717633507864  zlo zhi
                      0      2.2858575148342073      2.2858575148342073  xy xz yz


Atoms 

     1   2      3.8250601201596215      3.0232938108914147      8.5410048645961307
     2   2     0.81135466401215317     0.82512455476798063      2.9565706104873586
     3   2      3.6520166620716883      4.0769889216031938        11.1210646034557
     4   1      3.8639359606311041      5.1835629640314522      17.206901509829681
     5   1      3.1106442719499925      2.9404398052977982      6.7100904638616674
     6   1      4.1976479075477675      4.3893392256997954      15.790614546396805
     7   1      4.3212950054666388      3.5658192129617068      12.940736058622253
     8   1      1.3090245976804653      2.3108176986275848     0.88410999435020055
     9   1      2.5066630175842732      1.6361303286938367      4.3105967087069796
