ats_30.data (written by ASE) 

8 	 atoms 
1  atom types
0.0      2.2858575148342073  xlo xhi
0.0      2.2858575148342073  ylo yhi
0.0      18.286860118673658  zlo zhi
                      0      6.8575725445026219      6.8575725445026219  xy xz yz


Atoms 

     1   1      1.9218736803195471      1.5410745129163521      1.4936251189959178
     2   1      3.6812511444547065       3.757309010980209      3.4086345552028443
     3   1      9.2258074337649933      9.3899243199675766      14.659032269326982
     4   1      7.2075702194790159      7.6039566347754732      12.121338216805675
     5   1      9.9874436258830848      9.3567647174691615      16.124755618663364
     6   1      5.3794675970249148      6.1880220693863528      10.289089265170809
     7   1      4.6018927647686434      5.0461389308621092      8.3381793728957767
     8   1       4.248949625369872      3.3369305443012767       4.978905754593324
