ats_11.data (written by ASE) 

7 	 atoms 
2  atom types
0.0      2.2858575148342073  xlo xhi
0.0      2.2858575148342073  ylo yhi
0.0      16.001002603839453  zlo zhi
                      0                       0      2.2858575148342073  xy xz yz


Atoms 

     1   2      1.2981451790147995      2.2932995110319316      1.0245395155852806
     2   1      4.2890188677566945      4.4725922152951449      15.166052933868141
     3   1      1.6669817320752482      2.9980347159592267      2.8207296365310492
     4   1      2.9541566869065892      2.6786165635860768      5.3326356021303276
     5   1      1.9657635051460982      3.6912823075347898      7.5529071499704363
     6   1      2.0210458880429183      5.2973321633807968       12.83342619558185
     7   1      3.2409589883323715      4.9713123608001881      14.191446819693978
