LAMMPS data file via write_data, version 7 Feb 2024, timestep = 427, units = metal

24 atoms
4 atom types

0 2.2858575148342073 xlo xhi
0 13.715145089005244 ylo yhi
0 9.14343005933683 zlo zhi
6.857572544502622 4.571715029668415 2.2858575148342073 xy xz yz

Masses

1 51.9961
2 55.845
3 28.085
4 50.9415

Atoms # atomic

1 4 3.185731131805814 1.6536681836414018 1.9803608779964639 0 0 0
3 1 6.598548148943447 4.1464822267895025 8.960893449346273 0 0 -1
7 1 4.407866775168777 6.367056046725975 2.5467201965885864 1 0 0
8 1 3.363701352772533 6.2335876910308325 0.3365513089408785 1 0 0
9 1 3.7934806579744804 2.620112902570919 5.381104615415509 1 0 0
10 1 5.551889994469361 5.277344629847329 4.414743483744829 1 0 0
13 1 4.5778908716596325 4.083932617099219 0.8023018577925554 0 0 0
15 2 6.74502294523807 7.418046807218448 4.858183013545394 1 0 0
18 2 4.388027967934216 3.4944324153656106 3.173990617536266 1 0 0
19 2 4.936028371268886 4.39931434175903 6.610954682771533 1 0 0
20 2 6.079347429451616 6.307154491684028 7.628550884786129 2 0 0
5 1 6.775577250976379 10.803843156341067 2.1660364487262234 1 0 0
17 2 5.603091805068525 8.511363565421775 2.9918480853990093 1 0 0
23 2 5.632669608324545 9.257209175206008 0.6525000847897074 1 0 0
2 3 7.917752553506643 11.811833610512425 4.079651318656752 1 0 0
4 1 8.899493996680519 13.23690929091339 2.3498723503344605 1 0 0
6 1 11.181325717204162 13.597104977976974 8.891842640382817 2 0 0
11 1 10.044569615163631 14.24475229271849 4.263872041268089 2 0 0
12 1 9.059421980664474 9.861215383604174 5.016777333172165 1 0 0
14 2 7.754705714821218 13.438427999730628 0.19475429365147545 1 0 0
16 2 11.34378145888996 13.830443246888102 6.4618714176690935 1 0 0
21 2 7.916012026715382 8.53399469680137 6.724707282298033 1 0 0
22 2 10.203239156454547 11.668396911581612 6.520507255993617 1 0 0
24 2 9.06159339773378 10.197180345461723 8.103464534254286 1 0 0

Velocities

1 0.1303787100920003 0.05392850826498787 0.01964680103648793
3 -0.2207438240200726 0.17215529044972125 -0.08187430964356984
7 0.4212483089413531 0.15871874319262805 0.0872224494942902
8 -0.2930850754202181 0.3649457923529378 0.4011237043016778
9 0.16356925590672977 0.08175186198407965 0.03323696492710905
10 0.4197215027041272 0.06508314604782708 0.05619854000207407
13 -0.009608441344300308 0.14435573850169775 -0.07123127772669098
15 -0.30882636269782215 -0.23652720981319728 0.07685835449454503
18 0.32686326828037215 -0.0005104170357005549 0.01765229889050868
19 0.1397883993935547 -0.014036178224109852 -0.06684434360429573
20 0.13808107363670133 -0.005608172827916956 -0.07316210008396311
5 -0.08142133644161823 0.14227041508586574 0.6296754150208671
17 -0.29508626619167966 -0.21555165492520512 0.09424032570827301
23 -0.09069608105158736 -0.0826493084074006 -0.09974405361058032
2 0.0595556107637148 0.9211246512579745 -1.4365926191682397
4 -0.1285977415558438 -0.5921717128081655 0.43428560938666033
6 0.0420249723814556 -0.12603913070187336 -0.2723068347098477
11 0.06623268549925586 -0.247840233877047 -0.34018043757282207
12 -0.01161605954265735 -0.4982063649169967 0.12302519295330176
14 0.21287992095241012 0.020557489504364895 -0.10289235118822923
16 -0.19803237218804737 0.054993770883471745 -0.26232412118640797
21 -0.11792367605876113 0.15737718612972112 -0.20209598157248496
22 -0.18836183075132742 -0.06725390051730344 0.46322425511560444
24 -0.12932857061018727 0.10955441048300596 0.030539323615018273
