LAMMPS data file via write_data, version 7 Feb 2024, timestep = 935, units = metal

6 atoms
1 atom types

0 6.857572544502622 xlo xhi
0 4.571715029668415 ylo yhi
0 2.2858575148342073 zlo zhi

Masses

1 51.9961

Atoms # atomic

1 1 2.99151493575569 3.1906159346994465 1.6386394632097854 0 0 0
2 1 2.1262643619267116 2.4203805547399178 0.5036617451116769 0 0 0
3 1 1.2216062814158621 1.0638353148801116 0.6770154998833018 0 0 0
4 1 0.6333696360180625 4.1464196571185274 0.5311824372287829 0 0 0
5 1 1.3790262906593267 3.29243031173126 1.659714615802775 0 0 0
6 1 0.5121274997270351 2.518683094904239 0.5211798905460135 1 0 0

Velocities

1 -4.911966740111194e-08 -2.2692712529976883e-07 1.8389067379499312e-07
2 2.4109260880744777e-08 3.2494479066976886e-07 7.914665246446449e-07
3 -5.84308343990047e-08 -3.2116454478274835e-07 -7.63140550240456e-07
4 8.51540138332873e-08 1.707874783801505e-07 -2.5421102851171745e-07
5 -2.2484619187031827e-08 -1.2696508348868648e-07 -9.857241314870201e-08
6 2.0771846273119652e-08 1.7932448452129648e-07 1.405667934611952e-07
