LAMMPS data file via write_data, version 7 Feb 2024, timestep = 2531, units = metal

8 atoms
1 atom types

0 4.571715029668415 xlo xhi
0 4.571715029668415 ylo yhi
0 4.571715029668415 zlo zhi
2.2858575148342073 2.2858575148342073 0 xy xz yz

Masses

1 51.9961

Atoms # atomic

1 1 3.1992661418319797 1.732036300194762 0.6774421399694734 0 0 0
2 1 5.902600521690717 3.587694995774276 1.8741369440060214 0 0 0
3 1 2.097439236321761 1.8585023534542993 1.8730229674636243 0 0 0
4 1 5.257898529434914 2.2498414363250023 2.5789409256507434 0 0 0
5 1 6.675514917886918 2.883941992444277 3.127124733894176 0 0 0
6 1 3.091339836217991 0.5635634198394962 1.836042609988169 0 0 0
7 1 3.6788528578144293 2.0480182937680174 2.22287823250853 0 0 0
8 1 6.1154524544047515 1.4821668539012989 3.7535623214309424 0 0 0

Velocities

1 -1.136837702901967e-07 1.697587677627641e-08 1.4759850410689635e-07
2 1.835013794736126e-08 -3.0502633899437734e-09 4.920284676988194e-08
3 1.0382402856796125e-07 -2.1118132113207696e-09 2.1176155724236543e-08
4 2.2643483430582163e-08 -1.8801739310037496e-08 -6.661127296511899e-09
5 3.005383741996748e-09 -6.894866305650827e-08 -3.88987782903396e-08
6 -3.512530990176886e-08 9.09204682496577e-08 2.5350485077031622e-08
7 -9.0260450663925e-08 -2.3997808224747367e-08 -1.1274068181035785e-08
8 9.124649716798995e-08 9.013942166618281e-09 -1.8649401791016322e-07
