LAMMPS data file via write_data, version 7 Feb 2024, timestep = 82, units = metal

46 atoms
3 atom types

0 2.2858575148342073 xlo xhi
0 2.2858575148342073 ylo yhi
0 59.432295385689386 zlo zhi
0 48.00300781151836 29.7161476928447 xy xz yz

Masses

1 50.9415
2 28.085
3 51.9961

Atoms # atomic

8 3 0.7388917011813527 1.7218023965880347 0.585360897451039 0 -1 0
16 2 3.035670933796278 1.7774103272493802 3.4792426942867745 0 0 0
22 2 5.321091258772256 4.019764334535263 6.391193580435887 0 0 0
25 2 4.177477863992435 2.9097917897418273 5.087643475747327 0 0 0
42 1 3.0308259326462332 1.767501388103644 3.424595798304361 0 0 0
44 1 1.888551139315796 2.9146183337364207 1.8296247229002913 0 -1 0
38 1 6.4649710853170035 5.114282615709996 7.61045171619071 0 0 0
7 3 8.775854604643028 7.299523831442909 10.179604339345358 0 0 0
21 2 7.617084392826716 6.21822204770693 8.864049431220513 0 0 0
14 2 9.927036597177109 6.116147783575899 11.845037556182184 1 1 0
41 1 11.09275557679411 7.237868868106058 13.459989070656468 1 1 0
43 1 9.931879133096865 6.128600872581158 11.802603145554112 0 1 0
1 3 13.525336786362198 9.386291862928992 16.05633625584959 1 0 0
17 2 14.758553809379888 10.466769523609909 17.39403928561334 0 0 0
24 2 12.302692937281918 8.314679976880978 14.746664723855591 0 0 0
23 2 17.260327775727028 10.354025159062466 20.133264302886985 0 0 0
35 1 16.00375589404462 11.545963298409552 18.770716638128576 0 -1 0
39 1 18.53332285876116 11.449310558189811 21.47041774872632 0 0 0
19 2 19.813428887749055 12.558799858113876 22.830107822151906 0 0 0
37 1 21.09445627306159 13.653799902851118 24.196914448978518 0 0 0
33 1 22.37886452384642 14.760266829949757 25.596757089426056 0 0 0
4 3 24.947823868615707 14.67600676404539 28.325144983338838 0 1 0
11 2 23.660421960791965 13.579004892866275 26.951133853803704 0 1 0
13 2 25.198418599946574 16.892774054358412 31.14177726739069 1 0 0
27 1 26.21987315630465 15.785631814534401 29.722239612002006 0 1 0
2 3 26.4488463982281 18.008491951085617 32.52304611799305 1 0 0
12 2 27.696405754568637 19.119852260543983 33.91394152690811 1 0 0
15 2 30.1472955888377 19.0430927256093 36.6990414613777 1 1 0
18 2 31.34639824836506 20.156503437435074 38.09511903931064 1 1 0
45 1 28.933340797800852 17.93748619185313 35.30183106392158 1 1 0
9 3 33.71216702649782 22.420084568867484 40.78855545623541 1 1 0
20 2 32.53258268318657 21.28538005333013 39.435136952797016 1 1 0
30 1 34.87526086563859 21.281695249633458 42.154095999189906 1 2 0
34 1 36.02842550151055 22.425971221527732 43.53524664048179 1 1 0
6 3 37.18473763381032 23.59037454493424 44.86061684546586 1 1 0
29 1 39.48192986159789 25.9724085498856 47.416468876601584 2 1 0
46 1 38.34000826020088 24.771570843552965 46.13883314337219 2 1 0
5 3 41.77546721455694 26.099269819478263 50.03479709446596 1 1 0
26 2 40.627054526566255 24.882959218058534 48.70981655279275 1 2 0
31 1 42.92620295520425 27.331231064767202 51.315370312101386 1 1 0
3 3 44.081280111989685 26.298613042406526 52.52974032222779 1 2 0
10 3 47.58486108682053 30.22826590460496 58.83304622162205 1 1 0
28 1 48.714604098980494 28.999935159717964 57.596089095635406 0 1 0
32 1 47.55591772647435 30.054027113073197 56.295918115271064 0 1 0
36 1 45.24009691127831 27.55692796622664 53.74602412168883 1 2 0
40 1 46.39866324108024 28.82203917317057 54.99732228875666 1 1 0

Velocities

8 0.00018221459261094237 -0.00027519626498828035 -0.0005216339031723083
16 -0.001383294930227447 -0.0013184444247403822 9.092352555900954e-05
22 -0.0006037669375620958 0.0020929151661157547 -0.001333373559153192
25 0.0022852448576723 -0.0014232225591108206 0.0012313735436250796
42 2.6790087347822364e-05 0.00019742522010215445 0.0007503027905719287
44 -0.000169969384385412 0.001615523571408239 -0.0002870750884823078
38 -0.0014081347739702391 -0.002140853569585749 -0.0017127472873396817
7 -0.0013373674876187337 -0.0006689650111425503 -0.0017910653717943116
21 -0.0014197460199306343 -0.001573300202181557 0.002067697042064007
14 0.0028125802761378204 0.0012934263215000372 0.000859036885362705
41 0.0001398606711156438 -0.0010736399809946234 3.3736512375991465e-05
43 -0.0005764524553268589 -0.0012365962465457393 -0.0003078338449747633
1 0.0027925321644250343 0.0023255169677571176 -0.0006199734607314338
17 0.0010239829961970423 0.0008095704909086685 0.0005602999384486025
24 0.002646688447360116 -0.00130721847589315 0.0004245511149800784
23 -0.0017512668319906528 -0.000886913391177883 0.00013594373903446502
35 -0.000730494975837398 0.0009915735321994646 0.0003779530208369977
39 0.0015977046694541867 0.0014366146252587897 0.001506710127876637
19 0.0014916291409606 0.0017083835747152046 0.0007640481401635248
37 -0.000495876647896057 0.002327094635226931 -0.0004142167114882671
33 -0.00031351018961162493 0.000577735695467959 7.703699856316754e-05
4 -0.00028991000950048275 -0.0009198221741535484 -0.0015295666212504072
11 0.0005334091490814467 0.0008644229233326625 0.0012016613614285801
13 -0.0006807777136073639 -0.0014914895795250685 -0.0034957907644861275
27 0.0009344717884187355 -0.0008029744631091765 0.0019568764301179644
2 0.0015452947141469415 -0.0028799341938522257 -0.0004516088905547676
12 -0.00019819289949511227 0.0009887388453593893 -0.0016468957771155737
15 0.0007573334063731044 0.0014269750362031351 -0.0004086417735863044
18 0.0009045323984001528 -0.0014365730413058617 0.0030368228575486786
45 0.000946282669946152 0.0006317529119726133 -0.0014895077840627509
9 0.0002563278932581254 0.00043478400157024406 0.0006712842763627189
20 -0.0006327017468480892 -0.0014553593541465346 -0.0026258992825566345
30 -0.0012024948771815088 -0.00020958457355265493 -0.0012862734541454139
34 -5.924429065765531e-05 0.0020350419474093806 -0.0019635535683748422
6 -0.00020611031848042328 -0.0005642286621088523 -0.0009213228675180631
29 6.655965353348809e-06 -0.0005726262008215518 0.0006795777628430553
46 0.0008102397505844242 -0.001174946987876562 0.001890288445147019
5 -0.0015974902215586903 0.0012269660802955607 0.0026286757410766137
26 -0.00020166612314017322 -0.0020026324094847697 -0.0019767129848565408
31 0.0017620114860272549 0.003134954909463272 0.0018012459979144708
3 0.001252972919637279 0.0002363269172858297 0.0032198645792645216
10 -0.0006610217399495283 -1.6348885354899613e-05 0.00013697778314998625
28 -0.0023329477773074213 -0.000543827931572208 -0.002170749665356388
32 -0.0005631656980106642 -0.0018707347567639592 0.001036212978371194
36 -0.0007550828886277657 -0.0006880794478234428 0.0003924617087989745
40 -0.00267275145789511 0.0005356291961573373 -0.00109439013585276
