LAMMPS data file via write_data, version 7 Feb 2024, timestep = 14, units = metal

6 atoms
1 atom types

0 2.2858575148342073 xlo xhi
0 6.857572544502622 ylo yhi
0 4.571715029668415 zlo zhi
2.2858575148342073 0 0 xy xz yz

Masses

1 55.845

Atoms # atomic

1 1 3.403332918939003 4.9245732871373 1.21125567149604 1 0 0
2 1 2.5949035109451883 6.33123985508325 4.370823267201403 2 0 0
3 1 1.3524480702218709 0.7113527817076432 1.7485291282715636 1 0 0
4 1 2.057783455184298 3.6890882935757263 4.06264803532282 1 0 0
5 1 1.5307083475047747 1.772010559182696 4.5451873027559575 0 0 -1
6 1 2.5307188839803243 2.543093440324986 1.7723941886056191 0 0 0

Velocities

1 0.0014929525807911217 0.001636007386862415 -0.0006808207382194727
2 0.0006502553910694714 -0.0018810607256637302 -0.0005670650535221157
3 0.00045274788784884813 0.0002244441084072648 0.0019135695477436375
4 -0.0005897024556394765 -0.0005567091435560804 -0.0012953882369651736
5 -0.001473170290726857 0.0008937704171308953 0.001514132237370479
6 -0.0005330831133431069 -0.00031645204318076425 -0.0008844277564073544
