LAMMPS data file via write_data, version 7 Feb 2024, timestep = 24, units = metal

18 atoms
3 atom types

0 2.2858575148342073 xlo xhi
0 11.429287574171036 ylo yhi
0 6.857572544502622 zlo zhi
0 0 2.2858575148342073 xy xz yz

Masses

1 50.9415
2 28.085
3 51.9961

Atoms # atomic

1 3 0.45919730286630606 2.252227537480752 2.575787304126726 1 0 0
2 3 2.142251646358763 0.8649463932137573 0.8698959182518647 0 0 0
3 3 1.9639090340310468 3.14764636969917 4.310546445114537 0 0 0
4 2 1.246240786666913 6.946218324150992 1.9142748846071258 0 0 0
5 2 0.9440991240896905 13.417803436344316 6.006946577889546 0 -1 0
6 2 2.014535394741707 4.554377396216133 5.896668740620677 0 0 0
9 1 0.6296507651635567 5.487073217425781 0.4640793221151044 1 0 0
12 1 0.9477064706909694 6.631444455059783 5.749853560339514 1 0 0
15 1 2.178596249211311 7.264548340971914 3.925095202083007 0 0 0
16 1 0.852899193083818 5.20510335764753 3.96816173967753 0 0 0
17 1 1.895394908741154 4.476260346012545 2.1895671467543614 0 0 0
18 1 1.02194131840522 3.045384783645986 0.7579470368498576 0 0 0
7 2 1.49013009032788 9.60268802184666 0.7579525808101168 1 0 0
8 1 0.5103955842052504 11.051284705387511 5.777985033816183 1 0 0
10 1 0.9770841563456075 11.012749219863837 2.5115008513474844 1 0 0
11 1 1.84110836122645 12.252989385931107 4.1245746873278675 1 0 0
13 1 0.14528664431565513 8.935953309278482 2.652856966912203 1 0 0
14 1 1.8976523990657876 8.94326001612935 5.573426118361557 0 0 0

Velocities

1 0.0023730279600667624 0.0022471298767039907 -0.0006828028190310356
2 0.001155498429850904 -0.002834332763744065 -0.0005184485206682935
3 0.0008701394414226383 0.00020770219586037708 0.0030655742072512185
4 -0.0007880856657944649 -0.0013628606757412178 -0.0020733889608721143
5 -0.0025248739124278776 0.001488602335058685 0.0034497800156413007
6 -0.0006767790575321246 -0.0008905449993467264 -0.0012654915999081528
9 -0.0001016181116321843 0.0004024303996800806 0.0005854703538724264
12 -0.0004609281264838886 0.0007779932239512915 -0.0012968978211384233
15 0.0002316589097192309 0.0010956367076622201 -0.00039938336747642105
16 -0.001319916830429007 -0.0008943052917488124 -3.728716164711133e-05
17 0.0004249325516763042 0.0006481279561629144 0.00030292745795090683
18 0.0003383520619579516 -0.0009799275796287064 0.0020979671738592365
7 -0.0021793669195697167 -0.001029660640834366 -0.0024207236423438453
8 -0.0001747111535858496 -0.0002977761348646629 -0.0005910258726164147
10 -0.0010063393241636237 -4.249210063702032e-05 5.851923196205078e-05
11 6.935355324796361e-05 0.00068788623740306 0.0007678006951906784
13 -0.0008107164934498254 -0.0010197323261963236 -0.002637018644280242
14 0.0017213482353340922 0.0009988375845643874 0.0005194587406554796
