LAMMPS data file via write_data, version 7 Feb 2024, timestep = 26, units = metal

29 atoms
3 atom types

0 2.2858575148342073 xlo xhi
0 2.2858575148342073 ylo yhi
0 50.288865326352564 zlo zhi
0 38.85957775218152 29.7161476928447 xy xz yz

Masses

1 50.9415
2 28.085
3 51.9961

Atoms # atomic

8 2 1.6364929613712764 0.8612942649117492 1.329934388921124 0 1 0
10 2 6.621612683161021 5.620345582065338 6.5201256020887435 0 0 0
14 1 5.938413470804087 4.475105043466607 4.828604284338287 0 0 0
15 1 2.76409751178111 1.926653293043218 2.9763925047573587 0 0 0
6 2 7.4212742237337155 5.726123476944954 8.295096548374996 1 0 0
7 2 11.47837987393016 9.140991417448772 13.032299324266459 0 0 0
11 2 8.77732567928415 6.738660019184109 9.86412806305699 0 1 0
16 1 12.641085178163125 10.285819758410051 14.665177908287905 0 0 0
25 1 10.155270523357396 7.9122619699523185 11.436061762648093 0 0 0
3 2 13.63969635228379 11.285897271874013 16.326831632263577 0 0 0
22 1 14.731639904494426 12.351623513751015 18.011209065932345 0 0 0
26 1 16.498374387575307 13.43299982975832 19.92217325707281 0 0 0
9 2 17.673856050263176 14.628903168090009 21.607147695501975 1 0 0
21 1 18.827613573072146 15.86159369499577 23.26609833433853 1 0 0
4 2 19.38259251957239 14.951704879304756 25.048929861752697 1 1 0
17 1 21.720844732563815 17.697760203789937 28.089023792745937 1 1 0
18 1 20.606977200593423 16.35009782301031 26.600072500954393 1 1 0
13 1 24.70271313896264 19.304991985562964 29.49968196420177 0 0 0
27 1 25.951973656188347 18.450630002818098 30.918724158099863 0 1 0
29 1 27.199108624504973 19.76488386893785 32.42884890059773 0 1 0
2 3 28.406454337278007 20.990095451572763 34.026894682736966 0 1 0
23 1 28.126544707802424 23.026673254491325 36.076207218331575 1 0 0
20 1 29.77676487106591 23.159655257970666 38.17447131217213 1 1 0
1 3 34.20902579606485 26.86282808209353 41.980981389561975 1 0 0
28 1 33.12604473771538 25.74012533797444 40.20363503579766 0 1 0
5 2 35.22422213671481 27.149701115942555 44.03683331101789 1 1 0
12 1 36.24000823703216 28.4114301681943 45.8539672574169 1 1 0
19 1 37.33248833511821 29.17110821974624 47.776473173553995 2 1 0
24 1 39.22549023899426 30.171622402785953 49.74207739190058 1 1 0

Velocities

8 -2.7428130273413377e-05 -0.0002939558383969413 -0.0006545779780145846
10 -0.0011772512023679946 5.900415367306646e-05 0.00024349398976342417
14 0.0019049868066126478 0.0012515731002109534 0.0006328508874331001
15 0.0003756649965278064 0.0013509475184907522 -0.0003104365832013954
6 -0.0005569415359471533 -0.000688075619482399 -0.001199587218153535
7 -0.002099505041954944 -0.0008308923672382968 -0.0023855536662091095
11 0.0003100198313637565 0.001068837507265603 0.0012241584500145457
16 -0.0012171896870672753 -0.0006919359526967978 6.129302202697734e-05
25 0.0015125932851560934 -0.0007699020055686146 0.0009099088801013691
3 0.0014326401584278273 0.0004035486857547563 0.004447267273659526
22 -0.0006371381232902897 0.001846477656436026 -0.0009985351804799006
26 -0.0003379324393430752 -0.0012010444314205105 -0.001477247995708867
9 7.363153680052893e-05 0.0006741614730832415 0.0009720654586901257
21 -0.0012443131666377975 -0.0008815757008948019 0.0015322223283128378
4 -0.0006712094042168731 -0.00117295703249577 -0.0020289783087570814
17 0.0005740805929055832 0.00089153300695208 0.00041055889170501695
18 0.00048519666994436335 -0.0007798361813099273 0.002253354795726174
13 -0.0006944423144072772 -0.0008206999144548441 -0.0026076030950302133
27 0.0007119455015339127 -0.0006021478856719783 0.001980998636143944
29 -0.0002178668517090312 -0.0003713039460682613 0.0007009514003799323
2 0.0013240828329599337 -0.0026835769439226133 -0.0004326694088425855
23 -0.0014909998376353628 -0.0003708310620560279 9.479283919033907e-05
20 -0.0006586686924704197 -0.0007938151919976345 -0.0019603115042764003
1 0.0025740041641830963 0.002533075622182739 -0.0006013962760795438
28 -0.0025625050951399164 -0.0003424437069621977 -0.002155509534691077
5 -0.0024542040859967086 0.0017543678117408494 0.0036411319829170595
12 -0.00033534799231151144 0.0010248532791634016 -0.001231828987141158
19 0.0009220589594513378 0.0015603453391719608 0.0005621691791270179
24 0.001781545678640684 -0.0006835826552591358 0.0003095473589894667
