LAMMPS data file via write_data, version 7 Feb 2024, timestep = 76, units = metal

41 atoms
3 atom types

0 2.2858575148342073 xlo xhi
0 2.2858575148342073 ylo yhi
0 70.86158295986043 zlo zhi
0 27.430290178010488 16.001002603839453 xy xz yz

Masses

1 50.9415
2 28.085
3 51.9961

Atoms # atomic

15 1 3.2290097261311694 3.190636904804534 5.016281980357805 0 -1 0
16 1 0.9912867743952114 0.907382499543757 1.5721661326920664 1 0 0
22 1 4.354206272471508 2.05503617744221 6.767355707496111 0 0 0
36 1 2.106644512008606 2.0459404861975763 3.282805854534725 0 0 0
38 1 29.597167958438867 18.05653044624208 70.70832218651614 0 0 -1
13 2 6.551418998436526 4.324640991387884 13.689716577937068 0 0 0
18 1 5.475783947765454 3.2111161854874166 8.491881403222413 0 0 0
27 1 4.302753090242801 4.361738602823818 10.219928389967462 1 0 0
39 1 5.4371412307159135 3.2124402919705397 11.969734739518687 0 1 0
10 2 7.6720203600384025 5.467554383360973 15.419836210970974 0 0 0
34 1 8.785832495207247 4.304196309257671 17.138236617581125 -1 1 0
1 3 7.630288231585581 5.416896881969464 18.881285027615824 0 0 0
3 3 8.775907510087816 6.521776146521601 20.595685350656737 1 0 0
17 1 11.076785996823343 6.4856581783602705 24.0501747988329 0 0 0
35 1 9.928101390308218 5.357197125551878 22.31972034013369 0 0 0
2 3 12.233329137959762 7.626102651232637 25.79885744108404 1 0 0
21 1 11.112718632533007 6.447374180246084 27.548669581284173 1 1 0
32 1 12.259151123086028 7.538781438754936 29.282173520844562 1 1 0
8 2 12.4345724460221 8.627785295972794 31.312774560697857 1 1 0
24 1 13.564479237414728 9.722474494469317 33.04436609528514 1 0 0
25 1 14.710106247650979 8.518556626797853 34.77442620014307 0 1 0
11 2 17.027618151480034 10.680697098160271 38.243544325116254 0 0 0
33 1 15.865380062517502 9.597147789594139 36.50779459827496 1 1 0
12 2 15.90990242663617 9.480205163966666 39.9604577154779 0 1 0
28 1 17.083210670228965 10.559398725163163 41.67687720264381 1 0 0
29 1 18.256868284704453 11.647374147556468 43.38888276920672 0 0 0
5 3 19.432750106445834 10.454637462374441 45.089885611082664 0 1 0
6 3 20.659123719837833 11.461333196819416 50.19318264286467 1 1 0
19 1 19.49221063657212 12.64534709670296 48.49800648130322 1 1 0
23 1 18.320585932364214 11.54848968266821 46.78943267171284 1 1 0
9 2 22.97437407277211 13.675650674355941 53.59042908117532 0 0 0
31 1 21.833300704203648 12.503918728141812 55.30091095319308 1 2 0
26 1 22.972795954741823 13.620106196147367 57.001605757881634 1 1 0
40 1 21.820157111939988 12.56694873096821 51.88464012087387 0 1 0
7 2 24.10530439197554 14.738403153322595 58.69995184433176 0 1 0
20 1 25.17294379989813 15.822113881455833 63.82917750010282 1 1 0
37 1 24.059879674859072 14.696869652476629 62.11240427890334 1 1 0
41 1 25.22829772232928 15.862343740080084 60.40374005384679 0 1 0
4 3 26.28164772957322 16.94823196949031 65.54361453609499 1 1 0
14 1 28.491459822984027 16.927588917144867 68.9704085317758 1 1 0
30 1 27.3898382552303 15.7950142323991 67.24938015304976 1 1 0

Velocities

15 0.0005614915165206732 0.0011128362552844287 -0.0003248698714788282
16 -0.0009886929487234507 -0.0008753213927135313 3.690164806478533e-05
22 -0.00042418010742761175 0.0015950918745913278 -0.0009945353262395284
36 -0.0007590687355656401 -0.0006758808521945359 0.0003793986027004274
38 -0.001395993959156316 -0.002092779728223283 -0.0016738237226092102
13 -0.0006865984751222535 -0.0014594513299073751 -0.003412836182174855
18 0.0006680889985956312 -0.000960866904360543 0.0021702413327461556
27 0.0008887635647456533 -0.0007879386150504583 0.00190518119138724
39 0.0015356183714271506 0.0013963453796461433 0.0014661314326415281
10 -0.0009498243568902779 -0.00014449785983734748 0.00021422172166999683
34 -8.04133874339774e-05 0.0019799949556115358 -0.0019184365171079079
1 0.0027009404330693163 0.00226329689751691 -0.0006080351850238809
3 0.0011993995322214528 0.0002256979411613713 0.003136980727293466
17 0.0007545918528757551 0.0006657287782309793 0.00037681120227024066
35 -0.000735088004167215 0.0009622942666090857 0.0003652481966889
2 0.0014845026434862707 -0.0028136092709105335 -0.0004438282607175761
21 -0.001015089830439422 -0.001059880972866723 0.0014684269363165715
32 -0.0005718908063868761 -0.0018293313114679398 0.0010072528827536026
8 0.00016919665770555604 -0.00048800257636596875 -0.0006597922279129867
24 0.001929710736920199 -0.0008671918677450633 0.0002785056189431238
25 0.0016679631798053002 -0.0009511988504772908 0.0008627843438908846
11 0.0004976048881271671 0.000838283553525074 0.0011686156331517262
33 -0.0003284003669950461 0.0005586758672038573 7.176308613253854e-05
12 -0.0002159307570913662 0.0009595295803874424 -0.001609598369594146
28 -0.002297969349092135 -0.0005351915267308641 -0.0021205160506933282
29 -1.6140492375294844e-05 -0.0005632786427661292 0.000659424525637006
5 -0.001580673405767421 0.001191873959574921 0.0025603908859676452
6 -0.0002236526609257541 -0.0005550884754268334 -0.0009019429779641552
19 0.0010932483942513668 0.0013166246184158027 0.0005243600745894232
23 -0.0012551681308027123 -0.0005628184266163597 6.950405473125759e-05
9 0.00026754908594287864 0.00045418030588118127 0.0009232758397777186
31 0.001695867745530699 0.003052746332661873 0.0017533939443804564
26 -0.00013298970070396647 -0.0013707916091555688 -0.001460424134003408
40 -0.0026293818143080473 0.0005176091585854845 -0.001070736470570791
7 -0.0018473723817437923 -0.0010105553706694344 -0.002344397640566271
20 -0.0004451339045408367 -0.0009744714380513728 -0.001930547086473612
37 -0.0005062634125283091 0.0022648356055866912 -0.00040735945548629835
41 0.00011377481589532962 -0.0010519202363684455 2.9531875312453357e-05
4 -0.0003053829769048443 -0.0009019008532024335 -0.001495166575566116
14 0.002049845059859475 0.0010161239305214894 0.0005931483245920573
30 -0.0011954321964831427 -0.00020920207578752973 -0.0012578813638785828
