LAMMPS data file via write_data, version 7 Feb 2024, timestep = 53, units = metal

41 atoms
3 atom types

0 2.2858575148342073 xlo xhi
0 11.429287574171036 ylo yhi
0 11.429287574171036 zlo zhi
2.2858575148342073 0 -4.571715029668415 xy xz yz

Masses

1 50.9415
2 28.085
3 51.9961

Atoms # atomic

3 2 2.3299893401945333 0.7477874600415149 6.257000005471516 0 1 0
4 2 2.672524685207571 2.009238570592302 1.662306398933699 0 0 0
5 2 3.4659508755150017 3.065759719474259 9.381968257850236 0 1 0
6 2 2.3307324024996343 1.4074061460897571 10.10074036821954 0 1 0
8 2 2.295853231639183 -1.7202628438580327 10.956201449871914 0 0 -1
10 2 3.554748912394033 7.214155566774932 0.01285244633248378 0 1 1
15 2 1.191367525114939 1.1446476874819194 8.221211015074907 1 1 0
16 2 1.280293690118809 -3.309931227493453 11.348568507546187 1 1 0
17 2 1.1951780579843132 -2.2583026208869446 9.069480101358838 0 1 0
18 2 0.19252569466980762 -1.1905155834165357 3.1872062470269755 1 1 0
24 1 1.3270642203592433 3.0917457895746954 3.34976327378785 0 0 0
26 1 1.2611111606145995 2.4419211000368297 5.618447374215355 1 1 0
32 1 0.12894956669722987 -0.17876413688098836 0.8011534636430124 1 1 0
34 1 1.2095620400925446 -0.6310501531325352 7.4120340140857595 0 1 0
35 1 2.4034213440437187 1.5478116220126337 3.9848944318251416 1 1 0
38 1 1.3734827917639425 0.43820674089678824 2.465152965729377 1 1 0
40 1 2.312736513410443 -0.43892335651724723 9.328125247600159 0 1 0
41 1 1.0925952170731312 -0.06260344912747051 4.639585926446917 1 1 0
1 3 2.5597278441673037 4.698059033881524 3.671305748698646 0 0 0
2 3 3.609679773747511 9.680191533742995 1.4124593408224027 1 0 0
7 2 2.2074113995137195 3.698499890782659 1.4969889427777265 0 0 0
9 2 1.7580101470169276 -1.5652952511816598 5.3914499668004 0 1 0
11 2 2.515765239696493 6.020502529446142 6.500503435974158 0 0 0
12 2 2.4893492300744073 4.104312067659845 5.250955591869952 0 0 0
13 2 1.265977194600373 5.2612143980676835 2.233019847438173 1 0 0
14 2 2.754562287216228 7.923347375889152 5.355036869253669 0 0 0
19 2 2.3809848027786185 2.725364163183778 7.481428420561118 1 1 0
20 1 2.372992490983314 4.268931656181476 11.106813523712477 1 1 0
21 1 2.267137076182375 4.635149327611348 8.99768668764021 2 1 0
22 1 2.570089348869696 6.8562739888499085 3.212093838584383 0 0 0
23 1 0.28368381718195523 -2.210266249762987 7.142880538882166 1 1 0
25 1 3.9019004211960677 7.634429470826056 7.391332210621655 0 0 0
27 1 2.182724772928119 6.047225095464734 1.033648831844571 1 0 0
28 1 2.2835835417823853 7.533431300223846 9.622961872929707 1 0 0
29 1 3.743191268293769 6.095955619442067 4.805036131994944 0 0 0
30 1 2.6129175286461255 7.9985744740000975 1.7432266376975534 1 0 0
31 1 3.475780380873233 5.919293412190152 10.580023484707267 1 1 0
33 1 1.1142195271386401 0.0654535632369031 11.302529275412004 1 0 -1
36 1 3.1849346330145356 6.185988678502168 8.408070415417894 0 0 0
37 1 3.5972292075434993 4.362321578146305 7.106998800834665 -1 0 0
39 1 3.760387167835203 8.604267174635199 3.595528826578117 1 0 0

Velocities

3 0.0016224929283287154 0.0002269242180564772 0.004355050605919171
4 -0.0004263597656095397 -0.001308369961336398 -0.0019518990181119325
5 -0.002162745067061408 0.0015424314931207668 0.0035699885504173754
6 -0.0003150789811409522 -0.0008361638649821563 -0.0011441890941308118
8 0.00020059238004100705 -0.0004523467948128357 -0.0006134269761035975
10 -0.0009191730920927988 -0.00010861355292837825 0.00026116843375991047
15 0.0007477589887451343 0.0014238469714534124 -0.00035538538030255524
16 -0.0013413969618179527 -0.0012555576246430545 0.00013216764305958178
17 0.0010079968673955453 0.0008212882004362073 0.0005902576857241122
18 0.0008914185137790595 -0.0013708457846706252 0.0030072314801382178
24 0.0019622776865694195 -0.0008317883516298473 0.0003254950975506193
26 -0.00010179501562291543 -0.0013357231257329683 -0.0014145915231809668
32 -0.0005409881115654253 -0.0017945678833869224 0.0010547271792391752
34 -4.918372460700195e-05 0.0020172926360588015 -0.001872908610814371
35 -0.0007042938804829265 0.0009989148954733654 0.00041229538302933673
38 -0.0013656395201729087 -0.0020581915659837126 -0.0016281330813568355
40 -0.002599847918347545 0.0005539339492337041 -0.0010246446099981545
41 0.0001451336674237397 -0.0010166396155560926 7.635571772743294e-05
1 0.0027340204631283926 0.002300783051874337 -0.0005616355005092794
2 0.0015167734069899232 -0.00277950065908123 -0.00039731933331924637
7 -0.0018173182338762715 -0.0009752472308152805 -0.002299153115876033
9 0.0002990102397631937 0.0004904628988522307 0.0009706942683735515
11 0.0005292190924924285 0.00087482168106995 0.0012161972803611146
12 -0.0001847912506833066 0.0009961483699730395 -0.0015638650007722642
13 -0.0006557720925304564 -0.0014244418296464557 -0.0033683024637302422
14 0.00275358650883852 0.0012935094965907253 0.0008818113663082757
19 0.001464398247021392 0.0016984889131299308 0.0007891066688713853
20 -0.0004141468814272104 -0.0009391392924321022 -0.0018850272370481195
21 -0.0009844819851784117 -0.0010246056481392663 0.001516208040713715
22 -0.0003931791442610225 0.0016321334883550227 -0.0009483927708939077
23 -0.0012247200038115807 -0.0005272124182336606 0.000116354489667637
25 0.001700355995153736 -0.0009158512221700083 0.0009101625289617893
27 0.0009206379974905015 -0.0007524823736685961 0.001953252857796345
28 -0.0022682149724572846 -0.0004995671388417908 -0.002075122583011833
29 1.5131929649756068e-05 -0.0005276729405540716 0.0007066674203535338
30 -0.0011649443286238666 -0.00017336081502396296 -0.0012119140062640664
31 0.0017282791251098575 0.003090757688579571 0.0018013646304158883
33 -0.00029733568389038597 0.0005950279785372042 0.00011861502394771403
36 -0.0007282905656802732 -0.0006403500615011251 0.00042645520296275056
37 -0.0004753170573935859 0.0023023227836092746 -0.0003608262662764376
39 0.001567923140984736 0.0014332547721875577 0.0015139110098957563
