LAMMPS data file via write_data, version 7 Feb 2024, timestep = 105, units = metal

43 atoms
3 atom types

0 2.2858575148342073 xlo xhi
0 2.2858575148342073 ylo yhi
0 70.86158295986043 zlo zhi
0 16.001002603839453 20.572717633507864 xy xz yz

Masses

1 50.9415
2 28.085
3 51.9961

Atoms # atomic

16 2 1.0600617231828893 1.2780014396896062 1.9854441112566998 0 1 0
17 2 16.805714366397456 22.006398385999134 69.68600598594159 0 0 -1
27 1 2.072983860830075 0.21417473247566143 0.40366251162837274 0 1 0
33 1 1.3123475356249834 3.431517624583289 5.1575717000101 0 1 0
43 1 2.3310019600250174 2.3461617646989463 3.5755216315782397 0 0 0
13 2 4.08492778105625 5.602510627980763 11.453829043065811 0 0 0
14 2 2.5838716701302262 2.2414586528036455 6.709763119156824 0 1 0
19 2 2.8288303401654242 4.471051715541615 9.849798871262685 0 1 0
21 2 3.8542397918869122 3.3482201469638717 8.270622189355281 0 1 0
7 3 5.531398868696266 6.797947889231276 16.21149324726303 0 -1 0
15 2 4.473417968651583 5.698027484522211 17.8171337906866 0 0 0
20 2 5.687656877941049 6.881401394381387 19.42569335303231 0 0 0
25 2 3.050997049953912 4.463890088495712 13.053452431931579 0 0 0
28 1 6.894888844406655 8.085814558557148 21.03592907993464 0 -1 0
30 1 4.293418438215962 5.623822346562623 14.621212389948253 0 0 0
10 3 5.806082145778616 7.0177253607426735 22.671008497024747 0 0 0
11 3 8.23886210836831 9.704710051891066 29.292284389117917 0 0 0
35 1 7.0617631886942736 8.45424739158214 27.649206235738657 0 1 0
9 3 6.998960819491423 8.240538799612041 24.328693094858007 0 0 0
24 2 5.888988269098645 9.483373286736132 25.9916472482766 1 0 0
26 1 7.127327008173341 10.934476551004643 30.978500583517704 0 -1 0
22 2 9.46777402296162 11.152191672390456 34.39727061368555 0 0 0
29 1 8.335198829548824 12.403535417770145 36.07645472608468 1 0 0
32 1 8.287944188603698 9.919561147538033 32.70386659837184 0 1 0
37 1 9.537169240204395 11.372508102100731 37.80005929646601 1 1 0
3 3 10.749191866116757 12.782257775437364 42.94564692742397 0 1 0
18 2 10.671233833392154 12.62066473560435 39.53543270801231 1 0 0
23 2 9.610337168382076 13.832919855609696 41.24623549984992 1 0 0
8 3 12.10517395342819 14.119637456056337 48.09664151505652 1 1 0
31 1 11.986850762261755 13.996874179945344 44.66421907268922 0 1 0
42 1 13.314232251787459 15.324875102701982 49.785936486772535 1 1 0
38 1 10.887669832646111 15.20805645891054 46.39100818717719 2 0 0
4 3 12.257247890278798 16.50261857473614 51.482621163524556 1 1 0
5 3 12.43484794189902 16.56292981782392 54.89084140799137 2 1 0
6 3 13.476456507630406 17.68293207729232 53.19222939300875 1 1 0
1 3 13.65929764518739 17.724590139004814 56.58200675613226 1 1 0
2 3 13.857650669939327 17.714363049370714 59.90246827083228 1 1 0
12 2 14.909662428392046 18.86865229152839 58.24825346628969 1 0 0
40 1 15.097497661912444 18.850337323358808 61.5418315318396 1 1 0
34 1 15.545105821730818 20.93880280202194 68.08283134417573 2 1 0
36 1 16.567929325569896 19.869933062381286 66.45769462248946 1 1 0
39 1 15.323341773773404 21.058632310771653 64.83150061222238 1 0 0
41 1 16.35495958585835 19.955929852839542 63.197059466825074 1 1 0

Velocities

16 -0.0013355416195664977 -0.0012801944376365205 9.85785783645215e-05
17 0.0010562115982775825 0.0008340967566849789 0.0005649279489900531
27 0.0009672776547196571 -0.0007680487788822017 0.001952497818363991
33 -0.000272655997726918 0.0006037570805233969 8.478160658058002e-05
43 -0.0005339025298486635 -0.001198874104233026 -0.0002976071771912409
13 -0.0006375549870310474 -0.0014521236117652988 -0.0034650047331164393
14 0.0028332740856487153 0.0013148321662055573 0.0008617383198357533
19 0.0015208418594007374 0.0017271133302335236 0.0007673621638899571
21 -0.0013717576335690901 -0.0015334066318290073 0.0020626037402087043
7 -0.0012899103663402054 -0.0006349035635149166 -0.0017712732371577987
15 0.0007912816508470974 0.0014475196156370825 -0.00039776498821681084
20 -0.0005897890656410532 -0.0014162263928102399 -0.002600723243953172
25 0.0023093394912450695 -0.0013842968502783442 0.0012316737521948472
28 -0.0022790700870965915 -0.000510573501975857 -0.002148508919387795
30 -0.0011559075590734133 -0.00017848570342504297 -0.001269736758911731
10 -0.0006179264210690137 1.3503793913869253e-05 0.00014433582873413055
11 0.0004657473073941149 0.0007493010027576648 0.0008588796394510749
35 -0.000686951619059199 0.0010149260472651599 0.00038375699977220205
9 0.00029350715833963105 0.0004617272923867397 0.0006751965409222898
24 0.0026684521052127304 -0.0012690408857412476 0.000430054579452855
26 -7.358974636765978e-05 -0.0013618053164971638 -0.0014760685357483648
22 -0.0005610408590223563 0.002109165049729411 -0.001316533111952889
29 4.544538266484137e-05 -0.0005391860491144264 0.0006834365421114973
32 -0.0005207014597865444 -0.0018289230095648774 0.0010377717914704578
37 -0.00045384636159839125 0.002341834278592231 -0.0004033039729430593
3 0.0012837247492229456 0.0002645500721202742 0.0032073408660493576
18 0.0009375313459818071 -0.0013975612342529802 0.0030254795935689364
23 -0.001701140444055183 -0.0008514463787633673 0.00014330845324352236
8 0.00021987181970167428 -0.00024367426034104162 -0.0005100284234279579
31 0.0017894804892667625 0.0031444846037846593 0.0017978710580172784
42 6.544965825767783e-05 0.00022589925478118633 0.0007537054590470221
38 -0.001360221269369464 -0.0020972998067244485 -0.0016934602316657547
4 -0.00024920801687563235 -0.0008841429306294359 -0.0015114609108741646
5 -0.0015483555500499918 0.0012488005318792305 0.002619964647222144
6 -0.0001659487560933673 -0.0005308426667331899 -0.0009071397648801692
1 0.00281335526565107 0.002340266785613463 -0.0006077337821036585
2 0.0015741613394437103 -0.002831614046859199 -0.00044045500715593825
12 -0.00015808239711284704 0.0010121096415245067 -0.001628033402569898
40 -0.0026166823492951665 0.0005619221290569036 -0.001079090909947083
34 -2.002987785282361e-05 0.002051665059575156 -0.00194264904494596
36 -0.0007113809626305824 -0.000653894729818138 0.0003981721201614357
39 0.001626233299177646 0.0014570970382892312 0.0015052346710007535
41 0.0001777910416939782 -0.0010369687553651325 4.176036834482117e-05
