LAMMPS data file via write_data, version 7 Feb 2024, timestep = 40, units = metal

25 atoms
3 atom types

0 2.2858575148342073 xlo xhi
0 2.2858575148342073 ylo yhi
0 38.85957775218152 zlo zhi
0 27.430290178010488 29.7161476928447 xy xz yz

Masses

1 50.9415
2 28.085
3 51.9961

Atoms # atomic

1 3 2.764242103284422 2.2522708461082264 1.0319567761474178 0 0 0
4 3 5.2113773732026125 4.412706238836297 4.350159542422004 0 0 0
10 2 3.9717192484931294 3.3588642597968206 2.677917164651361 0 0 0
19 1 29.02454237569834 30.841461867459653 38.233070989041074 0 0 -1
22 1 6.466241558535957 5.44551148071038 5.957793705486727 0 0 0
6 3 6.790185576289178 7.370592695985336 9.083606266854224 1 0 0
3 3 8.14424419542129 8.247199921537351 10.698283219631803 1 1 0
13 2 5.472912710848869 6.426801201266515 7.5258610202861185 1 1 0
14 2 9.39551173361488 11.501835564647108 12.188361403712268 1 1 0
20 1 10.566386251100338 12.494493134023964 13.640222562562952 1 0 0
8 2 13.719462213276632 15.603259894584575 17.997156020478293 0 0 0
9 2 11.668795232418889 13.488369046976334 15.081634783369784 1 0 0
11 2 14.69473157883332 16.682995643247637 19.42560265924751 0 0 0
15 2 12.712805408615397 14.528207104755335 16.53833245336606 0 0 0
7 3 15.641383400216965 17.75005074334723 20.76670213116842 1 0 0
12 2 16.589736235097618 18.800043576226265 22.13656222957935 1 0 0
16 1 17.546770829463366 19.846604612105153 23.541393051641492 0 0 0
21 1 18.54064099056445 20.883139965953013 25.02611302494083 1 0 0
18 1 19.57674084586351 21.929017591543683 26.5185432047979 1 1 0
23 1 21.783496134167343 24.07169886868577 29.638418639792302 1 0 0
24 1 20.657126650207374 22.992091740846515 28.053148543407406 1 1 0
25 1 22.940448200359107 25.13219538491362 31.263341543489116 1 1 0
17 1 24.096505870598186 26.220224344355145 32.877187455280016 1 0 0
2 3 27.900963434417665 29.705759089787755 36.56134534842168 1 1 0
5 3 25.21685316902922 27.338643632877645 34.51330519835708 1 1 0

Velocities

1 0.0025434509506987507 0.002463096211715195 -0.0007147852602772708
4 -0.000574778991642257 -0.0008199219648981776 -0.0016349389788032453
10 -0.0012432088752958623 -3.4325616716190615e-05 0.0001380791049613259
19 0.0008759146381140446 0.0014811852714339405 0.00045976196021673896
22 -0.0006979981929534926 0.0017700181139974523 -0.0011156723734398622
6 -0.000490006369496065 -0.0004601999412574634 -0.001019633393779182
3 0.0009860171160223472 0.0003496502480804181 0.0031696340651977115
13 -0.0009701847477502425 -0.001398226542861995 -0.0036239913764945725
14 0.0025637318249870085 0.0014190227872102413 0.000781396690915537
20 -0.0007197319682843236 -0.0008951938966731778 -0.002086525970714787
8 -8.253373893335949e-05 -0.0003906168556631386 -0.0007684688926929943
9 1.9479732276712525e-05 0.000586637575725355 0.0008735268530273595
11 0.0002580990665773072 0.0009850385740277643 0.001127999105483113
15 0.00048462312915658836 0.0015541220291266022 -0.0005009999700954384
7 -0.0016343976599911198 -0.0005661523001925341 -0.0018994737819954585
12 -0.00048199702769724864 0.0011107978287033513 -0.0017536303495686641
16 -0.0012835243005986485 -0.0007923531180892186 -4.5841480914241735e-05
21 -0.0013109037723740694 -0.000983782691857037 0.0014389704998045687
18 0.00043492922935766683 -0.0008810829516678641 0.00216690903684025
23 -0.0015599186794913265 -0.00046821762996388997 -1.2025491482603827e-05
24 0.0017435132184587569 -0.0007839209819825103 0.00020475588784582628
25 0.001472022444305052 -0.0008710550168811732 0.0008107836388057915
17 0.0005246520414208447 0.0008060606685799287 0.0003067207704040037
2 0.0012817328248682482 -0.0028027912760791676 -0.0005444659438614617
5 -0.0018975404707521747 0.0013517909293502494 0.002571581406689065
