LAMMPS data file via write_data, version 7 Feb 2024, timestep = 75, units = metal

45 atoms
3 atom types

0 2.2858575148342073 xlo xhi
0 2.2858575148342073 ylo yhi
0 70.86158295986043 zlo zhi
0 32.002005207678906 52.57472284118677 xy xz yz

Masses

1 50.9415
2 28.085
3 51.9961

Atoms # atomic

30 1 1.736006459981761 3.1189743559274086 2.142312179760044 0 -1 0
33 1 2.9955641516583906 4.137520163533354 3.773559516535812 -1 -1 0
38 1 4.281311285804321 5.149934210941626 5.401754121027218 0 0 0
21 1 4.570120875961376 7.234842952464063 8.649900858851883 0 0 0
20 1 3.269397357542192 6.19018975701393 7.018538215108535 1 1 0
27 1 5.856562381753514 8.28519981149666 10.303813338761586 1 1 0
4 2 6.154140724688971 10.515205490340989 13.587305338776819 1 1 0
31 1 10.092808827251911 14.05501021245705 18.482770434801658 0 1 0
37 1 7.476789622361874 11.677466234698223 15.223892675680716 1 1 0
42 1 8.770101273284133 12.863106589689565 16.86930321769945 0 1 0
44 1 7.1521730136157995 9.371958723422647 11.9392392649966 1 1 0
1 3 11.698251571065576 17.639537275750826 23.313044725744316 0 0 0
11 2 9.111128015388527 15.254556035462073 20.086651096390174 0 1 0
32 1 10.416209509717131 16.453794912669007 21.697330961757956 0 0 0
13 2 12.969403547020274 18.82710035816383 24.912552739377958 0 1 0
15 2 14.213954525344207 19.994703569005694 26.492382327228675 0 1 0
9 2 14.347382425235253 22.279422202655486 29.661950292416112 0 1 0
29 1 13.152247935226162 21.143846921715507 28.078418685059955 0 1 0
39 1 15.525483191520735 23.412256723977507 31.230856242745855 0 1 0
28 1 16.68366917835587 24.532273953944983 32.78073662542195 0 1 0
35 1 16.662876078062386 26.74297617256856 35.893768662105465 1 1 0
6 2 15.53663446032825 25.647092147705862 34.33437987014095 1 1 0
10 2 17.778554504935876 27.838185151794047 37.447088938376766 1 1 0
5 2 18.888245211067314 28.93478699681926 38.98245205990761 0 1 0
36 1 19.991859550144646 32.32519040422202 40.521254729563125 0 0 0
12 2 21.09930178737271 33.42395424411807 42.06682533446901 0 1 0
23 1 21.051815102908172 35.64806304074406 45.10628765222464 1 0 0
26 1 19.92778628342083 34.52994119248991 43.60176682150285 1 0 0
19 1 22.17727906429829 36.768564293900546 46.603744615461885 1 0 0
16 2 23.327002907456144 37.905193702050646 48.14238388912911 0 0 0
18 1 24.47754432248339 39.03754621029289 49.68830299650163 0 0 0
22 1 23.369877254566234 40.19033671540324 51.22584522346895 1 0 0
43 1 24.54488920169452 41.32753115099153 52.727576325601795 1 0 0
7 2 28.169575736825944 44.750518417231476 57.31556332486813 1 0 0
24 1 25.748379785464895 42.48695049352801 54.25091056479691 1 1 0
45 1 26.950025677405222 43.60984782064695 55.78431538403762 1 0 0
14 2 27.110720903206317 45.86776451140595 58.83508444844119 1 0 0
3 3 30.824590756251055 49.231680924298715 63.499050552356934 1 0 0
17 2 29.586141142642838 48.11506446422867 61.940890651443965 0 0 0
25 1 28.34477366475899 47.00194197881299 60.382067595763445 1 0 0
41 1 29.789216943810235 50.32859010921857 65.0472520081343 1 0 0
2 3 0.48661128437216 2.0841378075922172 0.5378794337060372 1 1 1
8 2 32.28382958976433 52.52186167914756 68.20552342721969 1 0 0
34 1 31.036540067000217 51.431043920783715 66.61314911361771 1 1 0
40 1 33.53022584230219 53.599331008619394 69.80087205382173 0 0 0

Velocities

30 -0.0012267337145368392 -0.00022288784951954562 -0.0012557731663946135
33 -0.0003356797263361796 0.0005662650746098538 0.00011071068088327713
38 -0.001432852281851719 -0.002158652284234057 -0.0016832397079947492
21 -0.0010413947465318513 -0.0010971358276682653 0.0015460707813503348
20 -0.0004556475068135816 -0.0010093599190577202 -0.0019470759011489531
27 0.0009152071947493807 -0.0008176589800467209 0.0019949258378874147
4 -0.0004681904191325802 -0.0013885682892028064 -0.0020157547548887013
31 0.0017446731667270733 0.003129436759335589 0.0018389331428057976
37 -0.0005184706812766699 0.0023196960187667776 -0.0003816865264930206
42 5.412671778571635e-06 0.00018506934585603375 0.0007855436419868086
44 -0.00019180479940579127 0.0016064686221992882 -0.00025424895436176957
1 0.002777592600828582 0.0023181146789409204 -0.000587922218261237
11 0.0005132109969558377 0.0008536196278736904 0.0012379528457603587
32 -0.0005859163609438366 -0.001887904712517348 0.0010721193464594552
13 -0.0007038021434810294 -0.0015077767615980415 -0.0034704335974526214
15 0.0007376564855052873 0.0014174812002413673 -0.0003760986117392871
9 0.00027678122232340993 0.000458874338192702 0.0009858156185961553
29 -1.4768316660201622e-05 -0.0005867745332655783 0.0007146539867378696
39 0.0015799838911488846 0.001427143227487456 0.0015437116779875616
28 -0.0023598179838325486 -0.0005579092299294204 -0.002142308183800291
35 -0.0007536351331960602 0.0009810662067822834 0.0004123271490966251
6 -0.00035390249978929975 -0.0009036017919656041 -0.0011862181274687235
10 -0.000974321014611185 -0.00015639092551406053 0.00025711630410500127
5 -0.0022514979706461753 0.0015392702252954255 0.003655350495388217
36 -0.0007782802795745402 -0.0007024965222156563 0.00042686960911066454
12 -0.00022009401074000006 0.0009782249216066597 -0.0016172349143974292
23 -0.0012881247046989553 -0.0005863015662743565 0.00010838906030243828
26 -0.00013485497271852113 -0.0014166606167440555 -0.0014639276273530886
19 0.0011253575221775844 0.0013452137067700592 0.0005758474127726012
16 -0.0014079546180980266 -0.0013343288074705144 0.00012462953171942098
18 0.0006884185745685952 -0.0009953784554129757 0.0022673297889745816
22 -0.000434113159572016 0.0016313962329006103 -0.0009851308103306345
43 -0.0005992340460090464 -0.001252290110261164 -0.0002750560312679561
7 -0.0018967366860399221 -0.001046443600389547 -0.0023723926821499893
24 0.001984995059192553 -0.0008991080393426138 0.0003231812639994035
45 0.0009270455686115206 0.0006204080276561479 -0.0014594805673703991
14 0.0027976873787784735 0.0012836216225465453 0.00089453083847223
3 0.001234449704982601 0.0002240615950004413 0.003260853860138913
17 0.0010049267588709485 0.0007986395147656515 0.0005950985178792228
25 0.00171599547147648 -0.000985442536479184 0.0009236481331256265
41 0.00011874645133995905 -0.0010889545293992122 6.73094036199072e-05
2 0.0015274519405417285 -0.00289945327559276 -0.00041916574379629874
8 0.00017570382187569243 -0.0005094128529896392 -0.0006411132522179016
34 -8.082196951058735e-05 0.0020269635163027316 -0.0019346297939061975
40 -0.002700412629642037 0.0005240605634810291 -0.0010634431989333852
