LAMMPS data file via write_data, version 7 Feb 2024, timestep = 50, units = metal

39 atoms
3 atom types

0 2.2858575148342073 xlo xhi
0 2.2858575148342073 ylo yhi
0 57.14643787085518 zlo zhi
0 9.14343005933683 27.430290178010488 xy xz yz

Masses

1 50.9415
2 28.085
3 51.9961

Atoms # atomic

1 3 1.8795027887721674 5.203709879202744 6.907409120495494 1 0 0
4 2 0.7566940813616159 1.8075468363618303 2.146946050959252 0 1 0
7 2 1.9234660525300211 2.9526746705873723 3.7010106098341478 0 0 0
19 1 3.0565220309764234 4.06816114646551 5.290981782982879 -1 0 0
38 1 1.8659949924818422 0.6844754816862604 0.6374233522744593 0 0 0
13 2 1.848152428628019 5.450639253036574 10.15261448430481 1 1 0
35 1 3.0009252817185224 4.147178237754798 8.523930228792372 0 0 0
37 1 2.9647623971294155 6.758271938702085 11.788694102855567 0 0 0
9 2 3.9714533248591435 8.500080112191576 13.539751375943965 0 0 0
8 2 2.758795053681851 7.487177579595579 15.116996479043856 1 0 0
22 1 3.6476680160726036 9.533433739445192 19.75686227739392 1 1 0
23 1 3.8347317486752575 8.764554259269607 16.666763620693196 0 1 0
28 1 4.846370102615822 10.544590602874576 18.29958751586066 0 0 0
3 2 5.753479959695336 13.716403038337827 24.88232164835795 0 0 0
6 2 5.82276886558675 11.822526466012754 22.386339612114707 0 0 0
16 2 4.73231347640212 10.716794437981362 21.094610397227445 0 1 0
17 1 4.634368912140861 12.816591672233045 23.645576400786403 0 0 0
20 1 4.6444017450033215 14.58198559973731 26.083771237363933 1 0 0
36 1 4.923908023921249 14.151219106292848 28.507660549655224 1 1 0
26 1 5.9034902964514675 13.18269839111019 27.291493320058073 0 1 0
10 2 6.4216975754896275 17.662068314278415 32.13782489938254 0 0 0
25 1 6.228718791554749 15.223063054103395 29.68471908266248 0 1 0
29 1 6.634552927059389 17.945535072250742 34.915802571146834 1 0 0
30 1 7.825891241265943 19.199851381136195 36.4034046004659 0 0 0
34 1 5.196664779517513 16.40777467727255 30.897452347391756 1 0 0
39 1 5.375670204394223 16.649809304746924 33.481608758164185 1 0 0
2 3 8.44499997582779 21.171850427677406 39.87625457772016 1 1 0
14 2 7.334390591771515 22.157266678787828 41.44712400371811 1 0 0
31 1 8.581212745042967 20.856757241034117 42.986818761527864 0 1 0
33 1 8.199146110839452 20.39360210899441 38.119660229158605 0 0 0
11 2 7.724458311901483 24.10242359769985 47.50342714095113 1 1 0
12 2 10.072194499076815 24.47412416446036 50.43246991803621 1 1 0
15 2 8.801076300597135 22.93490303750333 46.001985541474674 1 1 0
18 1 8.909173182061469 25.38893327333094 48.985391248593665 1 1 0
27 1 7.553542588725537 21.872790334235283 44.50507541308452 1 1 0
5 2 8.807888962938872 28.266150645496868 54.80414866037733 1 0 0
21 1 9.884561362292533 27.04730499231263 56.30458419090906 1 2 0
24 1 8.92159221100572 25.84088225028824 51.84996928768138 1 1 0
32 1 10.022330846144406 27.122583971611753 53.30643571281096 1 1 0

Velocities

1 0.0026327007035269624 0.002268667616550478 -0.0006140975431914411
4 -0.0005237420394268369 -0.0013359887893998233 -0.0020026289455292974
7 -0.0019129675265967636 -0.0010032810931216965 -0.0023494504029227888
19 0.001025943446005773 0.0013225457734279647 0.0005176392931146204
38 -0.0014618515548375601 -0.0020848761988885656 -0.0016792663854824105
13 -0.0007528685438483778 -0.0014519160449423243 -0.0034172677084106993
35 -0.0008013298789956615 0.0009684214445272183 0.0003586199297031676
37 -0.0005726383358158746 0.002270205429949209 -0.00041353849515389464
9 0.00020072423478772125 0.0004606029231096064 0.0009163231115200266
8 0.00010242899288222547 -0.0004810321334873655 -0.0006658244923097873
22 -0.0004906027574790921 0.0016008511167641228 -0.0010003729566019617
23 -0.0013211076086773535 -0.0005558044825846583 6.304774610934939e-05
28 -0.002363302497488519 -0.0005281936461669642 -0.002125698987435144
3 0.0015225580096483713 0.00019739258249259678 0.004296462913711339
6 -0.0004125998985628727 -0.0008643710098483093 -0.0011959253391787136
16 -0.0014376392000410322 -0.0012832422510629764 7.884119805331112e-05
17 0.0006874838141086309 0.0006720283920790704 0.0003701762120557488
20 -0.0005115443711534714 -0.0009672181412539967 -0.00193584047934162
36 -0.0008252966669654618 -0.0006688011688058898 0.0003727621080600438
26 -0.00019958166138175383 -0.0013633078747653379 -0.0014659908765755484
10 -0.0010159413747676336 -0.0001377271453747633 0.00020768126797235354
25 0.0016003240676654186 -0.0009439590853632634 0.0008558667879905862
29 -8.280039420838403e-05 -0.0005562644311449649 0.0006526252118813634
30 -0.001261406407399186 -0.0002023937395109219 -0.0012635658735284563
34 -0.00014703591824155997 0.0019855303985786897 -0.0019237369515818098
39 0.0014680562102508915 0.0014022201815790077 0.0014588630647944135
2 0.001416970203192678 -0.0028052866202774667 -0.0004499860958533205
14 0.002652242372098499 0.0012626490132085966 0.0008275509477640695
31 0.0016282124084761544 0.0030576580318403363 0.001745958549754114
33 -0.00039487870750701444 0.0005650377262186692 6.530546401261473e-05
11 0.0004306462726341263 0.0008444828366053831 0.0011615202537863223
12 -0.0002824744922717495 0.0009656583658130511 -0.0016150783758498639
15 0.000648913892238935 0.0013928241019287096 -0.0004081043879248545
18 0.0006010312563083955 -0.0009536215178241735 0.0021625635651199857
27 0.000821577512774643 -0.0007807937764589842 0.0018976575411272546
5 -0.002257963995981761 0.0015112608803390856 0.0035123789590896506
21 -0.0010811689001634466 -0.001052578015292418 0.0014611572337648925
24 0.0018619194334930833 -0.0008600009479038613 0.0002719277878228132
32 -0.000638227571085077 -0.0018215809623734038 0.0010002513266313474
