LAMMPS data file via write_data, version 7 Feb 2024, timestep = 24, units = metal

22 atoms
3 atom types

0 4.571715029668415 xlo xhi
0 4.571715029668415 ylo yhi
0 11.429287574171036 zlo zhi
2.2858575148342073 4.571715029668415 2.2858575148342073 xy xz yz

Masses

1 50.9415
2 28.085
3 51.9961

Atoms # atomic

1 3 2.0508906226297343 0.8295493704316761 2.2788862066762685 0 1 0
2 3 6.3676603778341025 5.5112880306160985 8.884697279656704 1 0 0
3 3 2.5139519067731477 2.330647728495131 1.0887885399176507 0 0 0
4 3 1.3088500759733026 0.1972666820147842 0.22409153364202347 0 0 0
5 3 4.81194546614585 2.7403228400441852 0.7518403412682266 0 0 0
6 3 7.064153755646432 4.363062836202001 4.603291322551414 0 0 0
7 3 5.930628449363013 1.8018739116456242 4.0648916911399615 0 0 0
8 2 5.9530897568755465 3.897731483025521 2.378524906293794 0 0 0
9 2 7.635022312370288 3.109354104998409 9.001973375899897 1 0 0
10 2 6.6514629347272765 4.450739874448642 10.62461260795315 1 0 0
11 2 4.578011151971952 4.185187605184833 7.725424115553922 1 0 0
12 2 4.754752906789763 4.695901587823445 5.531139275318623 1 0 0
13 2 5.369881479840125 2.8259793953087953 9.458608157750039 1 0 0
14 2 2.870285097479359 2.361046650397805 5.510777116658091 1 0 0
15 1 4.191041295647814 1.9582193110565136 7.0326251915542635 1 0 0
16 1 4.452743522322217 3.3203058399748855 4.00416246141929 1 0 0
17 1 8.910033523830725 4.936393466891951 9.977546005905644 1 0 0
18 1 6.37923927456202 1.786863535454545 7.557962653767943 1 0 0
19 1 3.661712217843622 1.331670948194796 3.5766367340049414 1 0 0
20 1 6.740646515065738 4.088281427025571 6.923151015017435 1 0 0
21 1 3.622392315021138 0.49309732227210495 0.09865586696259128 0 0 0
22 1 3.4128622969157414 3.679933269251037 2.310889885417001 0 0 0

Velocities

1 0.0025717587594166684 0.0022801667054036597 -0.0006404605360095675
2 0.001336835975030487 -0.0028738881548377383 -0.0004737583224509604
3 0.0010474004354448633 0.0002116043850013515 0.003161464657053305
4 -0.0004802487563011705 -0.0009331294063448983 -0.0015410727796495128
5 -0.0017749185049710466 0.0011924624190775444 0.0025761129535823574
6 -0.00039727646602707756 -0.0005810468659224746 -0.0009388345532579211
7 -0.0015173641068027964 -0.0006847490949938503 -0.0017999896082479348
8 1.5425928371501635e-06 -0.0005129415292001666 -0.0006930040791841987
9 0.00010138958507142478 0.0004435587688910868 0.0009141202988701496
10 -0.001134483070756389 -0.00016421691326176064 0.0001942913907973313
11 0.000334941316389307 0.0008334988514289354 0.001163188276985175
12 -0.0003894372201029657 0.000956587333528756 -0.0016572434797983782
13 -0.000867257207157645 -0.001499152422913888 -0.0034878833032996777
14 0.0025916089250226796 0.001258266461524241 0.0008239467220689185
15 0.0003997987663110138 0.001112223657432888 -0.00035299224092765966
16 -0.0011739423099076524 -0.0009061460442399702 1.4276760456746143e-05
17 0.0005958334563540315 0.0006583219328967053 0.00035935158196713924
18 0.0005080161042627431 -0.0009929915059146515 0.0021800346857767734
19 0.0009396362242452812 0.0013191087895611494 0.0005091426076963729
20 -0.0006221233397403672 -0.0010068027741682575 -0.001983069335002874
21 -0.0012007403187716925 -0.0010935101927066555 0.0014675555142293316
22 -0.0006008511286202271 0.0016018076355699801 -0.0010328339353260106
