LAMMPS data file via write_data, version 7 Feb 2024, timestep = 58, units = metal

49 atoms
2 atom types

0 2.2858575148342073 xlo xhi
0 2.2858575148342073 ylo yhi
0 86.86258556369988 zlo zhi
0 59.43229538568939 36.57372023734732 xy xz yz

Masses

1 28.085
2 51.9961

Atoms # atomic

3 2 2.2588885613838343 3.0836539536989536 2.1936981602918704 0 -1 0
14 2 1.1211340637020635 1.93825323482071 0.677542214617064 1 0 0
22 1 5.0838827105523645 3.697147595401712 4.252513089133446 0 0 0
32 1 4.234842585992289 4.643765350508675 6.13310516559353 0 0 0
49 1 5.37878629191091 3.4997491174119033 7.6595825751574385 0 0 0
45 1 7.835434823254469 5.630126207222724 10.642007041570286 0 0 0
28 1 9.246505779731791 7.467487433015638 13.251826399954915 1 0 0
18 1 13.500064536553463 9.506157752004684 18.146507554895035 0 0 0
24 1 10.516505143504638 8.06126059004796 15.165763221371812 1 0 0
2 2 15.968045290832439 8.716468568714369 20.266444062618792 0 1 0
6 2 20.202343154397656 12.547102209489461 26.74583306479407 0 0 0
29 1 19.02987775144135 11.440079288508638 25.008126513922416 0 0 0
36 1 16.844528759682344 9.729603583528139 22.359694094571008 0 1 0
10 2 23.41496275425745 14.381388891885797 32.63522345319412 1 1 0
16 1 21.31109921679593 13.479320380473872 28.83194831855489 0 0 0
44 1 22.271872163102827 14.46839209706513 30.73469810505233 0 0 0
25 1 24.555985779680015 15.525379702261404 34.150972329611776 0 0 0
38 1 26.476085055791994 16.05988655272912 37.77939138512172 1 1 0
43 1 25.322498884058817 16.673973236758645 35.88989238105539 1 0 0
47 1 28.209153146834545 17.238810746177254 39.61165491395068 1 1 0
21 1 29.540495982617472 18.399771310605487 41.2416047379835 0 1 0
1 2 32.35238165406808 20.77154797412513 44.583939538433036 0 0 0
30 1 31.189725122526287 19.554738403885406 43.02344613195459 0 0 0
13 2 33.51110250127494 19.738736410353827 46.16064246033168 0 1 0
17 1 36.99838835855348 22.381700278213597 52.6698689646255 1 1 0
20 1 34.67222244997857 23.219828210766536 50.65956929242872 1 0 0
27 1 35.811310862100875 22.0585151453082 49.149681946060966 0 0 0
35 1 34.662932958993075 20.896143604735602 47.659472216071656 0 1 0
7 2 39.288570202391966 24.706418519032475 55.66328239889743 1 1 0
11 2 38.137974879287555 23.538357581755825 54.160936749976706 1 1 0
37 1 40.42923281780742 25.861194291761617 57.171042531933224 1 0 0
5 2 41.55970462540676 24.781978514684763 58.72605370878645 0 1 0
42 1 42.713209130472954 25.936735464444723 60.23025699765783 0 0 0
15 1 46.15270809949805 28.099197943284906 65.16455085302923 1 1 0
23 1 45.029974644375166 28.241184268890507 63.261968606435595 0 1 0
40 1 43.865762540806266 27.088240227473992 61.74056349718083 1 1 0
34 1 47.29439505936922 29.279199288949616 66.69414711212426 1 1 0
48 1 48.4410914733927 30.412673448907277 68.1987314572775 0 0 0
9 2 49.59067339637076 31.623292694845915 69.7221967000093 0 0 0
26 1 49.25178959899735 30.531065536235786 71.59761823484808 1 2 0
39 1 50.39515469332056 31.83743456700521 73.22432475582785 1 1 0
8 2 53.82704368229326 32.97551486340189 77.76862151472085 1 1 0
12 2 54.933320255798336 34.09064375148456 79.34805346162858 1 1 0
19 1 52.68380278158713 34.129986211378274 76.25109301400462 1 0 0
41 1 51.54278574435142 32.98486768551218 74.73790679753016 1 1 0
4 2 58.30970871178019 36.58087468947911 84.27318783328953 1 1 0
31 1 56.07267062826807 35.22645099064643 80.86097576679832 1 1 0
33 1 57.21283916688971 36.36648998452508 82.362524708369 1 1 0
46 1 59.41351417070734 37.370420827387804 86.02332476401028 1 1 0

Velocities

3 0.001208743255433974 0.00016389393872554188 0.003290528518951488
14 0.002059442469181137 0.0009660762457230119 0.0006782938274938167
22 -0.0006456691128359155 0.0020181548886724224 -0.0012570019747903235
32 -0.0008493850930443252 -0.002704656193474414 0.0015037746652087497
49 -0.00030765297632456243 0.002244981493251069 -0.0018879648737145857
45 0.0011809707868850336 0.0006614347974665725 -0.0018935671120451601
28 -0.0032299153100252736 -0.0009198365654316313 -0.002809904158545743
18 0.0008607395166855842 -0.0015069089807366984 0.0031077162464927806
24 0.0026007117115629903 -0.0013777165658362457 0.0004987190787323104
2 0.0015006986142591056 -0.0029484608291466888 -0.00037634262931867806
6 -0.00024851097035830815 -0.0006356581160012908 -0.0008454678032371271
29 -8.291915139155969e-05 -0.0009585730578771063 0.0010240653739147618
36 -0.001107532509478581 -0.0011138689817943477 0.0006378661630470255
10 -0.0007028521443082143 -8.84651258804462e-05 0.00021150623022122197
16 -0.0014242199396553796 -0.0013889284425604694 0.00016550970326724486
44 -0.0003204975442663612 0.001984702678163138 -0.00027617737847269904
25 0.002239721204169051 -0.0014935752338421852 0.0013045301269927897
38 -0.0019859512506898588 -0.0030679924503048627 -0.002193846106499506
43 -0.0008672570828485517 -0.0018516777940515848 -0.00030409993892538254
47 -0.0009583055636413447 0.002237522794438008 0.00023875324310262006
21 -0.00146062533663138 -0.0016434647492915662 0.002139805264415209
1 0.0027463726083822035 0.002250465115747645 -0.0005444961485655738
30 -0.0017093454505469749 -0.00047024651539174237 -0.0016201970349290322
13 -0.0005047473834917779 -0.0010781039141457202 -0.0025182308065865113
17 0.0009800403789431008 0.0007364189313008891 0.0006342977362604693
20 -0.0006745676513174508 -0.0015256717442713157 -0.0025479074715903296
27 0.001165083994553873 -0.0012684140293839693 0.0027421571712764187
35 -0.0010744593588038825 0.001145428770037032 0.0006183505568567098
7 -0.0013783500687166107 -0.00074026317432566 -0.001714120054593799
11 0.0003864883964354063 0.0006511797582825076 0.0009297865767008841
37 -0.0007588747308118078 0.002941835445392181 -0.00044719531279484634
5 -0.0016381467296306639 0.0011532913005879127 0.0027000807568334363
42 -5.5836785511083315e-05 7.72215168235333e-05 0.001119197462534565
15 0.0007137250437892293 0.0013530495382115726 -0.0003334293731475086
23 -0.001791730575655159 -0.0009579383483759083 0.0002104734823164877
40 -0.0036869845384591877 0.0005321389859971285 -0.001362095180088382
34 -0.00017156144954575542 0.002548995978639052 -0.0025312051167399423
48 0.0011953349756660709 0.002244123888816998 -0.0021774052952729874
9 0.0002133475587638421 0.0003621022500518819 0.0007451429513907237
26 -0.00024407234597373874 -0.0020722587735231466 -0.0018995349518221368
39 0.002057197172029144 0.0017440526244761794 0.002136639408559619
8 0.00013932716175424467 -0.0003469880311895499 -0.0004462798631119411
12 -0.0001505211384194992 0.0007424299613027432 -0.0011611074372695268
19 0.0014471003127624416 0.0016341053211905985 0.0008377905324149115
41 9.625422301462817e-05 -0.0016324856580655835 0.00015534564277106796
4 -0.00033220561550864754 -0.0009908058790308667 -0.0014529491019611665
31 0.002278205931403382 0.004028486630538267 0.0025328189985848767
33 -0.0005135739846982568 0.0005887763511918604 0.00021358903724565662
46 0.0009979797372324218 -0.0017687535036356897 0.0026525898103196416
