LAMMPS data file via write_data, version 7 Feb 2024, timestep = 22, units = metal

10 atoms
2 atom types

0 11.429287574171036 xlo xhi
0 2.2858575148342073 ylo yhi
0 4.571715029668415 zlo zhi

Masses

1 51.9961
2 55.845

Atoms # atomic

1 1 7.060420288238122 0.2926720823340281 3.4145004578159144 0 0 0
2 1 0.20680288011564052 2.2763092606755335 1.503634057859967 1 0 0
3 1 9.556028849306177 1.6150429057362117 1.9493391068056154 0 0 0
4 1 7.765509304612665 0.6591197805914424 0.8858758738478111 0 0 0
5 2 9.326487854411322 0.42578940829920303 3.9209055502713035 0 0 0
6 2 0.030372294197407612 1.1426939018667701 4.181675336178888 1 0 0
7 2 2.2321593593904976 0.6371996116255503 0.8923390809963927 0 0 0
8 2 2.308207330172442 1.7631580058743117 3.5507093363215048 0 0 0
9 2 4.656936246028401 2.23105377461311 3.3475711011377287 0 0 0
10 2 4.51806431415699 1.3640618880227524 1.2729203758998673 0 0 0

Velocities

1 0.002249329724311916 0.0020838152840332797 -0.0005995085163675453
2 0.0011767705333529043 -0.0023926013639975386 -0.00045472376256257957
3 0.0009253890282922099 0.0002872207464065581 0.0027025520340700796
4 -0.000401409863010721 -0.0007070072042260405 -0.0013817112189327672
5 -0.001473389231424366 0.0011122289871450068 0.002111799636436874
6 -0.00031884363352674937 -0.0003740768019821211 -0.000833934491983331
7 -0.0012575433961359314 -0.0004609854100834717 -0.0015556334164790848
8 3.382392350598557e-06 -0.00013424217377807919 -0.0005022787498724066
9 6.488046690130911e-05 0.0004548885083137199 0.00048758636876782615
10 -0.000696322119401472 8.054539216410491e-05 4.4227076095785335e-05
