LAMMPS data file via write_data, version 7 Feb 2024, timestep = 40, units = metal

7 atoms
2 atom types

0 2.2858575148342073 xlo xhi
0 2.2858575148342073 ylo yhi
0 16.001002603839453 zlo zhi
0 9.14343005933683 0 xy xz yz

Masses

1 51.9961
2 55.845

Atoms # atomic

1 1 3.3528587519353934 2.2544846604066633 4.774316232043003 1 -1 0
3 1 1.941848968192366 0.9669374914845015 2.021662733237815 0 0 0
2 1 0.8399586997157078 1.9871031791393663 0.2224282772958617 1 0 1
4 1 6.772536851317175 0.03537415104989323 9.188639612059642 1 0 0
5 2 8.168587162964648 1.939808672930121 11.66653721268497 1 0 0
6 2 5.630055465772624 1.1761919246676813 7.666087567381852 1 0 0
7 2 8.835088713381003 0.9282695852857604 14.65223230105053 1 0 0

Velocities

1 0.0017893714257487744 0.0017790378886702964 -0.0004939329327603956
3 0.000690530882555388 0.000287905450820804 0.00224670191577086
2 0.0008991717910191255 -0.0019362857023864507 -0.00037376489351553116
4 -0.0004106818974511835 -0.0005372810432688913 -0.0011431433129217969
5 -0.0013004002927094408 0.0009726434501266005 0.0017563909166002408
6 -0.00034215381252384567 -0.0002609564124548719 -0.0006885011389940496
7 -0.0011212531786374646 -0.0003330885724688185 -0.001287494765067459
