LAMMPS data file via write_data, version 7 Feb 2024, timestep = 47, units = metal

28 atoms
3 atom types

0 2.2858575148342073 xlo xhi
0 4.571715029668415 ylo yhi
0 25.144432663176282 zlo zhi
0 16.001002603839453 16.00100260383945 xy xz yz

Masses

1 50.9415
2 28.085
3 51.9961

Atoms # atomic

7 2 5.342761832162156 6.682148054826266 6.130629110391109 0 0 0
11 2 4.197469608878062 4.139400002314272 5.80000332028427 0 1 0
14 1 0.2917936167322377 3.9109725155912995 0.3331327973313489 1 0 0
15 1 0.9257632513189993 1.6297609444916419 0.2815446653245727 0 0 0
18 1 3.08004885648242 3.3836873176400624 3.9694707805824243 1 0 0
19 1 4.227075883216226 5.860283833515677 4.1931567265526555 0 0 0
23 1 1.9784618788121613 2.547339288579222 2.121944569607953 0 0 0
24 1 3.1316048858976693 5.004670875744832 2.288833374953963 0 0 0
2 2 7.695520664028663 10.204062338857437 9.311387594094231 0 0 0
1 3 8.777885001520636 7.271658363678891 10.339006706085023 0 1 0
22 1 6.485367976870565 5.222444967592192 7.545268720702238 0 1 0
27 1 5.319039731342863 7.802528889804935 8.27403463937537 1 0 0
6 2 8.94207424915035 9.681139162696935 13.66156196915457 1 1 0
8 2 7.7366681939719 10.757896615237598 12.083254928898969 1 0 0
9 2 8.961153397224441 9.208911095645748 10.96401360531394 0 1 0
16 1 10.15847208705254 8.07251618245396 12.666787695493797 0 1 0
17 1 10.072536823967011 13.314558022914767 15.234098189203538 1 0 0
20 1 10.063260372768411 11.28047342114058 14.714922616949284 1 1 0
12 2 11.195039758771617 14.57508060468665 16.594785334592476 1 0 0
25 1 11.196644178347144 12.085132213354843 16.666948987705055 1 1 0
26 1 13.43568950148358 14.235624501478025 20.016722326179714 1 1 0
3 2 12.339431580261365 13.2680559273234 18.239212305030776 0 0 0
4 2 12.304377809180517 15.51906647615397 18.37983337101936 1 1 0
5 2 13.38186342496011 16.546788809901432 20.04159857531867 1 1 0
10 2 14.615230232218794 17.61356476218766 21.787453846303674 1 0 0
13 2 15.257850989643025 16.30527766712275 23.640317978223344 1 1 0
21 1 14.365500983902825 15.315073555963735 21.79315871083781 1 1 0
28 1 15.799846208987539 18.597460114163948 23.59765339906842 1 1 0

Velocities

7 -0.0020698318943351787 -0.0008479345579185691 -0.0023629645134150665
11 0.0002970451200096117 0.0010181706743691342 0.0011828567938886177
14 0.0018637816638644616 0.0011976719027790756 0.0006020151957047285
15 0.00036152838567337573 0.0012952874240151708 -0.00032457637298455576
18 0.00046912138171300563 -0.0007977820509857271 0.0021938366766392644
19 0.0008982513412821482 0.001500978966821955 0.0005325845321839699
23 -0.0014720970474524841 -0.00039601619821075105 7.348061161680277e-05
24 0.0017425254063935763 -0.0007032321831333678 0.0002844340415928615
2 0.0017913453666261517 -0.003809413682227982 -0.0005688316787591193
1 0.0025209576172507465 0.0024564922190442704 -0.0006103861676041863
22 -0.0006333484263067578 0.001782046828910777 -0.0010004958339271655
27 0.0006918568278010347 -0.000623238784252686 0.001926301138422333
6 -0.0005545712942201627 -0.0007076456232534812 -0.0011979893115526886
8 -3.443011512106072e-05 -0.00032050164267902225 -0.0006626265695554697
9 6.484082651698949e-05 0.0006304802862087656 0.0009352257720011462
16 -0.0012031332534488627 -0.0007114376297415849 4.057373105013492e-05
17 0.0005564320862138255 0.0008440044098997573 0.0003836577008360546
20 -0.0006544979109468651 -0.0008115136374268512 -0.0019452490086888001
12 -0.0004231542351322658 0.0011405490179668795 -0.0016213029515028113
25 0.0014783333886473893 -0.000788023707140042 0.0008741693459890687
26 -0.00033943859215734937 -0.0012115350429048389 -0.0014707355776145343
3 0.0013997954079966709 0.0003646572630857961 0.004348917569559288
4 -0.0006668166559014758 -0.0011839447824166219 -0.00201270043157035
5 -0.002418252872947538 0.0016915673005116335 0.003557050628803234
10 -0.001163901667807545 2.6211064653683178e-05 0.0002195497969551134
13 -0.0008982175193331929 -0.00130102275685493 -0.0034413812033613138
21 -0.0012297766556628844 -0.0008977208119515995 0.001485468035037526
28 -0.002524636987097954 -0.0003681312906866015 -0.0021369920932071745
