LAMMPS data file via write_data, version 7 Feb 2024, timestep = 22, units = metal

25 atoms
4 atom types

0 2.2858575148342073 xlo xhi
0 57.14643787085518 ylo yhi
0 2.2858575148342073 zlo zhi
32.002005207678906 0 0 xy xz yz

Masses

1 51.9961
2 55.845
3 28.085
4 50.9415

Atoms # atomic

4 3 4.360228261179395 6.9391298315546885 0.41269232770848924 0 0 0
17 1 3.3079510194328186 5.571935205400747 1.1130483126793724 1 0 0
8 1 4.797321651149718 8.356057802776485 1.9404388215920436 1 0 0
25 2 6.157834616987728 9.77082727934034 0.5621497578579949 0 0 0
7 3 7.493657547134529 11.391103233705053 1.7331672795099138 0 0 0
5 3 10.760009165192134 16.74505783129844 0.806044444361163 0 0 0
11 1 10.784032221905312 18.614161812329648 1.8798962345944406 1 0 0
18 1 12.051698199812611 20.15242447098119 0.51882478426812 0 0 0
6 3 13.063926616938918 21.666735167472073 1.3002551355191205 1 0 0
2 4 15.083744791184056 23.307625761011224 0.23763467502900903 0 0 0
10 1 17.881138652655487 27.98283094394691 0.9258843106359067 0 0 0
13 1 14.984189412060205 26.32997223374087 0.7172370439086588 1 0 0
24 2 16.209625576670064 24.90262326813402 2.1000837237442003 0 0 -1
9 1 19.1952203399191 32.85050700502464 0.1430298298385883 1 0 0
16 1 17.986519819183457 31.129165108247683 0.9774053309982915 1 0 0
22 2 16.699878456448605 29.545531174813885 2.0340807176682363 1 0 0
20 1 21.59160167022518 34.8843901467008 1.443607235530522 0 0 0
19 1 24.082535215607997 42.59512585153902 0.2410443173636072 1 0 0
23 2 21.729439228118668 37.003066250835666 0.4439621457084223 1 0 0
14 1 26.07222331444034 44.68401087954102 1.5178496560973034 1 0 0
15 1 27.742093431493426 46.91878119766295 1.8324617949218134 1 0 0
1 4 1.5598016082340973 0.13751524156120248 0.4153625051967625 1 1 0
3 3 32.554489484240776 55.51180131528348 1.5936055643913392 1 0 0
12 1 31.94340414447191 53.4041252429777 1.388589556508773 0 0 0
21 1 29.693404357677586 51.33774643270638 0.22432203406161097 1 0 0

Velocities

4 -0.0007672611095154244 -0.0013332547187171848 -0.002092841638171819
17 0.00047854808983088045 0.0007396330886708668 0.0003558413796007704
8 -0.00013432001402274125 -0.00022713174452622956 -0.0005578269835131268
25 0.0013572120080084216 -0.000868737999603388 0.0008183355750119953
7 -0.0022038688253138644 -0.0009891993814138196 -0.0024514921137767237
5 -0.002560632068156014 0.0016111059211701769 0.0036102663033655783
11 0.00011512723737371202 0.0007802681895187518 0.0008309668198234402
18 0.00039005817473837274 -0.0009243271937985194 0.0021904684712830344
6 -0.0006523282504582554 -0.0008455515004357028 -0.0012586238413139642
2 0.0012542085498235983 -0.0028860428312315702 -0.0004908737696052704
10 -0.0009842887130028033 3.378226262206329e-05 0.00010604303316014171
13 -0.0007843516632548548 -0.0009650097847090743 -0.002648941589510087
24 0.0016155803005799688 -0.0007858155802622002 0.00024160011961912007
9 -5.961499563611135e-05 0.0004885169771504909 0.0006446154088470705
16 -0.0013047817824530935 -0.0008368166124982149 8.123748303093125e-06
22 -0.0007079208814653495 0.0016446791045644947 -0.001015005363182495
20 -0.0007487366199232823 -0.0009382442378220171 -0.0020045193363328745
19 0.0008249839252867279 0.0014054806853929537 0.0005067796034568096
23 -0.0015281805206129387 -0.0004853717207077484 3.5296848309128396e-05
14 0.0018035546143337765 0.0010980771831813757 0.0005771479913296932
15 0.0002810120372855937 0.0011970110909453639 -0.0003619580404854367
1 0.0025243505739446673 0.0024150025097303095 -0.0006623302279619239
3 0.001348831970038471 0.0002524255977373022 0.004421092961418023
12 -0.0004268491474588323 0.0008723623739572188 -0.0012792660628494418
21 -0.0013317850280822952 -0.0010256157187609704 0.0014725326659552433
