LAMMPS data file via write_data, version 7 Feb 2024, timestep = 77, units = metal

34 atoms
3 atom types

0 6.857572544502622 xlo xhi
0 6.857572544502622 ylo yhi
0 6.857572544502622 zlo zhi
2.2858575148342073 0 -2.2858575148342073 xy xz yz

Masses

1 50.9415
2 28.085
3 51.9961

Atoms # atomic

1 3 4.385487814092974 5.011312341891868 4.865607524681464 0 0 0
2 3 7.053078757241754 2.2040748310114253 4.0912095905700205 -1 1 0
3 3 5.52362619532031 -0.877374269942422 2.8617401727310665 0 1 0
4 2 1.5344717565223536 1.3049865775782243 6.641991274412405 0 0 -1
5 2 4.918196921120794 0.9196607065171334 4.195053448087327 0 1 0
6 2 2.997326520834455 4.477812485635548 6.396893767990637 0 1 0
7 2 7.837751620600688 3.439663119332489 5.8251667930801485 -1 1 0
8 2 3.9013644535924046 0.9851945241556951 1.9853826380975272 0 0 0
9 2 2.9585244249274867 2.413369583741658 5.258754697384633 0 1 0
10 1 6.684359917064547 5.2244724782849605 0.7542594257145148 0 0 0
11 1 2.2086654095523586 1.5090707604934204 0.5149845559185329 0 1 0
12 1 3.164961421229764 0.1464824237035871 5.497814477244283 0 1 0
13 1 5.646529191311059 0.2753221820934939 0.7932962505023704 0 1 0
14 1 5.806780098874795 2.059309872657637 2.333395890865855 0 0 0
15 1 6.224203244652176 1.2150079411645938 6.049971364025524 -1 1 0
16 1 6.570020742874103 4.465204674106815 4.0858780006661 0 0 0
17 1 7.6147333421168355 3.5286166145983753 2.0558523480989424 -1 0 0
18 1 2.205247025573645 5.269552049089994 1.045601535683981 1 0 0
19 1 0.9239096859367966 0.10376916951546833 4.613222259931368 0 1 0
20 1 5.309507874727465 3.03565430668359 5.419522379878789 0 1 0
21 1 3.1748773487370787 -0.5044461347146119 3.3282623161154046 0 1 0
22 1 3.8314302303951258 -1.9587670774997843 6.371599573917359 0 1 0
23 1 4.172973852079563 4.3674549116439 0.14358257435304053 0 0 0
24 1 5.350302796405694 4.264070066312021 2.125077023261845 0 0 0
25 1 4.643132002090543 6.275351858332137 1.1407382567928206 0 0 0
26 1 4.686738624918058 2.286544081676526 0.318255498267106 0 0 0
27 1 0.5647526027446452 0.459191793088763 2.23827698670708 0 1 0
28 1 7.007305956453232 1.9362250364659974 0.434224410659335 0 0 0
29 1 2.1824743301971234 1.6949560556457346 3.2268597805179122 0 1 0
30 1 4.136125223297968 3.042735784505112 3.5290319453004755 0 0 0
31 1 1.992828592987463 4.007424911144281 3.8895738268687907 0 0 0
32 1 5.821992949705383 -1.069427351955233 5.344145918349289 0 1 0
33 1 3.4310797000233375 5.274274418526976 2.8862108877232564 0 0 0
34 1 3.0204902867832866 3.232214051834392 1.6719735286116333 0 0 0

Velocities

1 0.002545845969981922 0.0022938237855337283 -0.0006111149882632129
2 0.0013313378719152092 -0.0027750286518716063 -0.0004471685529942188
3 0.001046687032899576 0.00025945716662564367 0.0031279600321347818
4 -0.0006074230080911028 -0.001307208182135852 -0.001998250239123134
5 -0.002339901225510106 0.0015371786126059462 0.0035112123919615653
6 -0.0004963926193012845 -0.0008360646085395169 -0.0011923577634609635
7 -0.001995251645889217 -0.0009748350194095754 -0.002344722971749217
8 1.8118416842334936e-05 -0.00045311117476768575 -0.0006627899265618259
9 0.00011631482407471546 0.00048757707920477945 0.000917766847048607
10 -0.0008251350462336471 9.883754527523303e-06 0.00012836739131151886
11 0.00024788838213234544 0.0007384495791649902 0.0008358886953303637
12 -0.0002810773458500979 0.0008283329554111611 -0.0012236860467323154
13 -0.0006299976748825641 -0.0009649313429657531 -0.0025604812140782853
14 0.0018957834594706634 0.001048629266687831 0.0005881630284060957
15 0.0004097909601823502 0.0011451881722178113 -0.0003283988729492137
16 -0.0011379343757606712 -0.0008398155693664156 3.279875170384948e-05
17 0.0006025849725444945 0.0006987899624304297 0.00037216909166531503
18 0.0005162193417421942 -0.000925225376212492 0.002162754220993164
19 0.0009407042873883104 0.0013486532564451349 0.0005194839003853582
20 -0.0005952376044251912 -0.000938808328402425 -0.0019315289279278607
21 -0.0011642893828825275 -0.0010240823741231757 0.0014620531451940534
22 -0.0005743170472892759 0.0016266787671352602 -0.0009970020064322465
23 -0.0014039868359362114 -0.0005278083411751777 6.534943966502085e-05
24 0.0017758397111631373 -0.000831698940639332 0.000274019455030893
25 0.0015145073763018634 -0.0009155726592101866 0.000857371311618956
26 -0.00028358856937309114 -0.0013344997984924955 -0.0014621517532366634
27 0.0007365438416234631 -0.0007525714110443184 0.001898114556793441
28 -0.0024451338104316757 -0.000500225267118498 -0.002121196535595059
29 -0.00016692472434695163 -0.0005282678272627874 0.0006543340924485716
30 -0.0013443456634915718 -0.000174752948315653 -0.0012599302860741032
31 0.0015423676757242847 0.00308202088053387 0.0017465680969155552
32 -0.0007217934259363186 -0.0017923120980712199 0.0010016106733579382
33 -0.00047868924668802095 0.0005919068743864283 6.760488746032745e-05
34 -0.0002310956603400848 0.0020109712585992937 -0.0019194375701183603
