LAMMPS data file via write_data, version 7 Feb 2024, timestep = 41, units = metal

33 atoms
3 atom types

0 2.2858575148342073 xlo xhi
0 2.2858575148342073 ylo yhi
0 52.57472284118677 zlo zhi
0 45.717150296684146 13.715145089005246 xy xz yz

Masses

1 50.9415
2 28.085
3 51.9961

Atoms # atomic

7 2 5.6098087156152525 3.4063033183578098 4.408749244477751 1 0 0
10 2 6.724543437603231 2.238401620482377 5.95393514536831 0 0 0
28 1 4.470643942152266 2.2742931695935553 2.788303482422119 0 0 0
29 1 2.351825371392323 1.1304078745644057 0.8356157764612061 0 0 0
13 2 9.928450340098522 3.313859039972125 10.135173297181446 0 1 0
15 1 11.942003132773992 3.4539403328543465 12.754688082997617 0 1 0
18 1 7.8200258675276215 3.3353535621644372 7.380498031208914 0 0 0
19 1 10.950730435810895 4.499649013438832 11.475853405295616 0 0 0
31 1 8.881025814012622 4.459195853610659 8.762064907226874 0 0 0
8 2 12.89505935151465 4.734319952704318 13.911626813582359 1 0 0
3 3 15.786866703693612 5.905372240327855 17.706839107897302 1 0 0
6 2 13.864243466617353 5.988140615785975 15.134458757713798 0 0 0
11 2 16.77730361722735 6.897727572453366 19.038262245123946 1 0 0
14 2 17.83083745587513 5.658101419213195 20.35122958932182 1 1 0
16 1 14.820869022817964 4.8689867410744245 16.388950290508504 1 0 0
4 3 18.966368628583975 6.821186685821498 21.72378266751162 0 1 0
20 1 23.576625578901414 7.0215047798478185 24.60765137601497 0 1 0
24 1 24.634820668443194 8.213437628875605 26.122955629613394 0 0 0
30 1 20.135845514146336 8.055095751099298 23.13608148366084 1 0 0
17 1 25.3936006202948 8.275000264400548 27.841493525878146 1 0 0
27 1 26.411848986972867 9.33284046055343 29.409591449606033 0 0 0
5 3 27.360642010656647 9.781378515729731 31.18003806929982 1 1 0
9 2 30.702578502049395 10.826552128179749 32.80855215688062 0 0 0
12 2 32.785928853281085 10.680673476914103 36.096528038714865 1 1 0
21 1 31.74647122270801 9.608452768545545 34.43921861504011 0 0 0
22 1 34.830523776025736 10.57488150119569 39.460565563155484 1 1 0
26 1 33.80547279517267 11.761965918320815 37.77558096696174 0 0 0
1 3 40.099876219077984 11.931952884829512 45.23871826218215 1 1 0
2 3 38.04421831590119 12.949478774582742 41.442865957814114 0 0 0
25 1 39.01011916766674 13.109056314310543 43.46933469455932 1 1 0
23 1 41.222241315242385 13.04009205361753 47.019631311957234 1 1 0
32 1 43.0299015321592 14.097098191331604 49.10490622150171 1 1 0
33 1 46.922556780883674 13.695373972113675 51.6466035630818 1 1 0

Velocities

7 -0.002003960293895235 -0.0008982001376954243 -0.0024720467292692646
10 -0.0010969600593491086 -2.3022048385565015e-05 0.00011351782817188371
28 -0.002459302563895128 -0.0004178301675009062 -0.0022458074095866665
29 -0.0001534434333220675 -0.0004462130730684022 0.0005634091280659174
13 -0.0008309621072716432 -0.0013518234860193982 -0.003551737153628748
15 0.00043027170285184235 0.0012475532364348962 -0.000431251017492536
18 0.000537991778621373 -0.0008479883948711259 0.002090136568224756
19 0.0009676285901359181 0.001453487724662525 0.0004269222935046195
31 0.0015765942140551431 0.003207892790930487 0.0016688992989662846
8 3.384552942828497e-05 -0.00037014426338905567 -0.0007697004903105515
3 0.0010748976212854428 0.000351072338807397 0.003067056836911766
6 -0.0004869099963567836 -0.0007577455056282606 -0.001305695557414015
11 0.000365712275018743 0.0009701091799659972 0.0010779626017031944
14 0.0026120104227061584 0.0013929249690987737 0.0007402798727484984
16 -0.0011362379820150507 -0.000761541990913108 -6.566962909639062e-05
4 -0.0004457319728147833 -0.000788401363592891 -0.0016138722875565698
20 -0.0005869546379357621 -0.0008617361998985918 -0.0020538378543844393
24 0.0018128998402324827 -0.0007533268527266556 0.00017847870858135378
30 -0.001345154431069165 -8.840767390963271e-05 -0.0013740881905551366
17 0.0006254056071279722 0.000795737205063216 0.0002778195624030094
27 0.0007609903009445667 -0.0006732389724215523 0.0018222850397000268
5 -0.0017344526719456912 0.0013274232983640773 0.0024843948435273066
9 0.000133233721490756 0.0005819608847705425 0.0008300390990359806
12 -0.0003553377185744738 0.0010926320664933248 -0.001729509179565659
21 -0.001162912853158107 -0.0009480451950330207 0.0013809312616080223
22 -0.0005657801733165249 0.0017348875602934243 -0.001107968817227567
26 -0.0002715231977758206 -0.0012622300767644375 -0.0015787639682538518
1 0.002592251469255732 0.002410129548171806 -0.0007173983864231363
2 0.001363003195167379 -0.002720242262611121 -0.0005514621749494118
25 0.0015483957812615606 -0.0008382185252965753 0.0007689105583471869
23 -0.0014055194532611801 -0.0004457480103149623 -3.2723881710801326e-05
32 -0.0007150464352782627 -0.0017255987278334522 0.0009149005165495981
33 -0.00046899176241084413 0.0006875569041525298 -3.044106011900595e-05
