LAMMPS data file via write_data, version 7 Feb 2024, timestep = 22, units = metal

35 atoms
3 atom types

0 2.2858575148342073 xlo xhi
0 4.571715029668415 ylo yhi
0 25.144432663176282 zlo zhi
0 13.715145089005246 16.00100260383945 xy xz yz

Masses

1 50.9415
2 28.085
3 51.9961

Atoms # atomic

11 2 2.8282350033809953 2.536104909231999 2.811878603306649 0 0 0
19 2 3.341053708073127 5.822138090245369 2.283628483842106 1 0 0
21 1 2.986473024950078 3.5612251116421207 4.687534923094726 0 0 0
22 1 0.5797743409345041 4.204109170022125 0.8664084613254384 1 0 0
23 1 1.3773909872426646 1.1591815247107387 0.18597341770811723 0 0 0
32 1 1.8260390984235753 4.204575108773127 2.824145547953337 1 0 0
33 1 5.5068748117577035 5.890011764154903 7.635976137495514 1 1 0
34 1 2.840561102676765 5.823329254350517 4.65684679595301 1 0 0
4 3 6.2327856842521765 8.655089978023998 8.18760139889308 1 0 0
5 3 5.031730683754988 4.303632278480883 6.402427237682277 1 1 0
24 1 4.079965178402125 6.927953389425089 6.369800369509012 1 0 0
1 3 7.853185755321938 8.472216086202366 10.422730520392312 0 0 0
9 2 6.898128425595756 7.3377120998443175 8.772189966903175 1 1 0
17 2 7.038082990521035 10.182162323174884 10.47346630749586 1 0 0
20 2 6.62844696183075 10.069919458510391 9.352845386185034 1 0 0
25 1 7.900542255314375 7.299050749998329 10.64524344914396 1 1 0
3 3 8.995775935173633 8.782211546227444 12.352249559805959 1 1 0
7 2 9.170755940695322 10.969989264816332 13.833130857877189 0 0 0
8 2 9.120989682651985 11.121602073234852 15.853110953967972 1 1 0
12 2 8.708665569692943 12.055642760729814 12.43083756139136 1 0 0
28 1 8.010833265413257 10.285366962040175 12.150052214940708 0 0 0
29 1 9.601697420206083 9.655663089256764 14.312127575464105 1 1 0
30 1 8.773602562920855 13.360146018877018 16.013043011966477 1 0 0
35 1 7.879656357617611 12.61955170599523 14.315293595593612 1 0 0
2 3 11.261797840167096 17.38413036854753 20.325673557728 1 0 0
27 1 10.045209626281391 12.072914999862954 17.419563233909653 2 1 0
31 1 12.09377415003021 14.105908547754225 21.616181095491648 1 1 0
6 3 14.749275876980445 15.221062996319914 23.687484448775997 1 1 0
10 2 12.753839278714192 15.765527440005377 20.71698428313003 1 0 0
13 2 9.831654101178998 14.29886197525212 17.45177248206063 2 1 0
14 2 11.81869169563379 15.858062358109413 18.821134279014238 1 0 0
15 2 13.81797004827717 16.523064350390232 22.892787182985543 1 1 0
16 2 14.664112930610486 18.017462614247982 23.526767249044354 1 1 0
18 2 2.156447664494267 2.845283450529297 0.2412397968570547 1 1 1
26 1 10.666513154295576 13.963889472458705 19.26143670272436 2 1 0

Velocities

11 0.0004134411009010735 0.0008852626537699872 0.0011428025955729395
19 0.0013565079326760382 0.0017158770266565493 0.0007121097300317661
21 -0.0011130271406760296 -0.001030185209742715 0.0014453437673836317
22 -0.0005167370136956302 0.001648961933531881 -0.001040044479067943
23 -0.0013552914234148733 -0.0005285967652166364 3.368328827585915e-05
32 -0.0006657926612992201 -0.0018066416162663573 0.0009799705906528232
33 -0.0004200851710189058 0.0006031090585788625 3.59628888115498e-05
34 -0.00016984019827033598 0.0020373696684509754 -0.0019723580575487587
4 -0.0003968582009333763 -0.0008707666353878044 -0.001545234120744123
5 -0.0016837605180715148 0.0012420726027548685 0.0025472503646836787
24 0.0018585866877322825 -0.0008357416145771001 0.00024458787219062576
1 0.002636838653369038 0.0023232511564920395 -0.000650025142258326
9 0.00018129057408649736 0.0004976620349414782 0.000895228912407452
17 0.0008962570801874956 0.0008312776502221065 0.0005115835745564258
20 -0.0007342290765556552 -0.0013978349035453517 -0.0026242295270514806
25 0.0015944558433905439 -0.0009205135051889576 0.000834186623951363
3 0.0011216257882476076 0.0002670992721946643 0.0031290902233128293
7 -0.0019528878653758248 -0.000980410483668326 -0.0024021976802598316
8 8.204261853831696e-05 -0.00045309969500670756 -0.0007022534479954075
12 -0.000306591492781425 0.0010076126607814402 -0.0016607078493600337
28 -0.002407587648462244 -0.0005007183144156706 -0.0021762775837457947
29 -0.00010498207990904152 -0.0005290611717675825 0.0006289751557235966
30 -0.0012950115761326902 -0.00017176063521805407 -0.0013057883585614245
35 -0.0008304758167756426 0.00101040252027091 0.0003321202661999934
2 0.001409324845816182 -0.002799881711265272 -0.0004843230664038214
27 0.0008081613904260108 -0.0007557667380900346 0.0018860747962926173
31 0.0016226144882592094 0.0031198887571188727 0.0017329054824922563
6 -0.00031438370678404617 -0.0005207964305853803 -0.000946609050676063
10 -0.0010471674061099813 -0.00010646726866376868 0.0001797186514365416
13 -0.000781544776541495 -0.0014333937704734242 -0.003480364663871645
14 0.002656569726980819 0.0013074818507802532 0.0008055963361853223
15 0.0006338242505653506 0.001438918644345455 -0.0004420354255558278
16 -0.0014729524818284693 -0.0012630851281367449 4.962981616572031e-05
18 0.0007786954578328818 -0.0013793456748906225 0.0029489430983893864
26 -0.00022289523408212014 -0.001343926777316358 -0.0015101753392005636
