LAMMPS data file via write_data, version 7 Feb 2024, timestep = 25, units = metal

33 atoms
3 atom types

0 2.2858575148342073 xlo xhi
0 43.43129278184994 ylo yhi
0 2.2858575148342073 zlo zhi
2.2858575148342073 0 0 xy xz yz

Masses

1 50.9415
2 28.085
3 51.9961

Atoms # atomic

6 3 2.3732233067655786 3.791923566244146 1.6267571047329838 0 0 0
16 2 2.602052929844528 7.196594700719138 1.4014063504382628 0 0 0
21 1 1.083921603749138 1.9308719501306637 0.8235056908986618 0 0 0
26 1 2.1991766102870174 0.21873837711440108 2.0804978705366763 -1 0 0
32 1 1.2987610156317682 5.5121551907447275 0.38353313391502303 0 0 0
3 3 2.421326749002257 10.370962968489026 1.2164886749797998 0 0 0
9 2 2.068861138636155 11.912299157838483 2.13277645563484 0 0 -1
12 2 1.0670777134687772 13.227305305656747 0.9080143599514904 1 0 0
25 1 2.237051376652995 14.553429078143706 2.267795436634962 0 0 -1
28 1 1.433073427644003 8.811129799864048 0.3364819424953816 0 0 0
1 3 2.0960453902072964 17.459977570968817 1.4421147666910277 0 0 0
2 3 0.9956421085718264 16.055412017968596 0.3516685787472923 1 0 0
4 3 2.492871345895724 21.457543140272154 2.2678213386746746 0 0 0
30 1 3.0871305630095893 18.82532224342816 0.15512007768152467 0 0 0
33 1 1.6662324631373593 20.12755022952769 1.0776823416319883 1 0 0
8 2 3.623621847829456 27.346738320254826 1.706476201168478 0 0 0
15 2 3.2445109725977925 22.74553426756355 1.3035552140566664 0 0 0
20 2 2.442381239210593 23.925369448131402 1.8142081000233927 1 0 0
23 1 1.548568505004613 25.203589231521658 0.3534568664229281 1 0 0
24 1 2.8273992140970305 26.099300574593354 0.9317994486452125 0 0 0
7 3 1.7884271654725954 30.772127896734858 2.0361170869257292 1 0 0
11 2 2.7481422139952025 33.190414316768916 0.006674358487348192 1 0 0
13 2 2.725543822505572 29.0987021207998 0.2095320960650349 1 0 0
14 2 2.665267135962311 31.118829111840178 1.321843056351525 1 0 0
17 2 2.1010803505460345 28.822113207734258 0.846800228281456 1 0 0
18 2 2.988456118280884 34.525496572766244 0.7483938066185946 1 0 0
19 2 3.875208166531892 32.6664897952352 0.96008996099922 0 0 0
22 1 2.1283958605631046 35.43306170660591 1.7228655086403541 1 0 0
31 1 3.8389629312556703 36.4765052486986 0.24638942253720816 1 0 0
5 3 4.178225514808791 40.320702823688436 0.5076800786331663 1 0 0
10 2 3.1698757014724 41.85540893183814 1.546827552494275 1 0 0
27 1 2.0643005296342367 38.81300834988465 2.0302820761952294 1 0 0
29 1 2.9891926785184904 37.60390119449798 1.206503356896446 1 0 0

Velocities

6 -0.0003376540747020488 -0.00040638102387425716 -0.0009894936764322717
16 -0.0014982226882354083 -0.0011499510070421867 8.464826630510765e-06
21 -0.001137676069722587 -0.0009166490734800399 0.0014065879593655785
26 -0.0002460076811473048 -0.001230932199289955 -0.0015540327527438546
32 -0.0006896696062005956 -0.001694445743473745 0.0009404114887685863
3 0.0011008341571301307 0.00038287468807022125 0.0030932407779041505
9 0.00015887580363168613 0.0006138354317543678 0.0008555235355040511
12 -0.00032984841033738434 0.0011246662978623043 -0.00170482510134722
25 0.0015744803776690012 -0.0008067880614802007 0.0007943758802190465
28 -0.0024344711551924857 -0.00038626825029761027 -0.0022212847753039105
1 0.0026186624742401453 0.0024425757545705772 -0.0006923978261013492
2 0.001389029820218334 -0.0026894002984283556 -0.0005264097271844865
4 -0.00042027093041964155 -0.0007569553221932859 -0.001589152050246601
30 -0.0013199746336852566 -5.674274790100801e-05 -0.00134929297392879
33 -0.0004435379932383423 0.0007194644704960394 -5.225691595377586e-06
8 5.945653336682361e-05 -0.0003385674350363721 -0.0007447162846012831
15 0.0006121906113504416 0.0015567167709421936 -0.0004840490924378175
20 -0.0007582241514983566 -0.001284933377867693 -0.002670009941189656
23 -0.001380358531724977 -0.00041419482288480446 -7.509227014338757e-06
24 0.0018390671457677128 -0.000721869843698755 0.0002037594052965964
7 -0.0014529435129390005 -0.000509639016012118 -0.001846959737614387
11 0.00039142705206827636 0.001002105099026582 0.0011035245626400537
13 -0.0008056215244586461 -0.0013205536239665468 -0.0035276228772007042
14 0.0026384276062188417 0.001425053100592207 0.0007657362419447616
17 0.0008750764337380947 0.0009480269104298325 0.0004712159765322236
18 0.0007573118849260529 -0.0012664122344299216 0.0029127826959086255
19 0.001336121738303371 0.0018341532189881063 0.0006720882659034498
22 -0.0005403566694075403 0.0017671226218194795 -0.0010830903863725183
31 0.0016026876279748384 0.0032405884540001604 0.0016946460429231082
5 -0.0017093946062209423 0.0013595309478048856 0.002510396588959228
10 -0.0010717026527969817 8.663323388913377e-06 0.00013877821193699616
27 0.0007868286795028478 -0.0006417569203045123 0.0018480797466290664
29 -0.00012789099372773576 -0.00041466003106109664 0.0005888101906438962
