LAMMPS data file via write_data, version 7 Feb 2024, timestep = 16, units = metal

5 atoms
2 atom types

0 2.2858575148342073 xlo xhi
0 11.429287574171036 ylo yhi
0 2.2858575148342073 zlo zhi

Masses

1 51.9961
2 55.845

Atoms # atomic

1 1 2.277317760412068 7.30453290643264 0.6486531615338245 -1 0 0
2 1 1.079935354759155 3.236634016105506 1.8128157392326214 0 0 0
3 1 1.0327579257209407 5.445791919782039 1.4338202506921907 0 0 0
4 1 0.12369283758650784 1.0508998765457076 0.570473525523969 0 0 0
5 2 2.0563297440468036 10.14136967957797 2.118986394179059 0 0 0

Velocities

1 0.0013407136898494797 0.0014980942429107884 -0.000826562371882295
2 0.0005340807243866147 -0.0018684567743993844 -0.0007176749964348979
3 0.00034502578867875864 0.00014694048670228042 0.0016567979092000664
4 -0.0006528116577633223 -0.000600782386706473 -0.001414828726673491
5 -0.0014590085596661022 0.0007673993381742712 0.0012125144026356434
