LAMMPS data file via write_data, version 7 Feb 2024, timestep = 18, units = metal

14 atoms
3 atom types

0 2.2858575148342073 xlo xhi
0 6.857572544502622 ylo yhi
0 9.14343005933683 zlo zhi

Masses

1 50.9415
2 28.085
3 51.9961

Atoms # atomic

1 3 2.031747917633118 4.382418015034727 2.1588882680378507 0 0 0
2 3 2.19282019348067 2.5506562489707223 7.326105018006462 0 1 0
3 2 0.7918992127225507 2.847141212729503 3.2447738777073427 0 0 0
4 2 2.043202109820146 1.0929124555697733 4.34405522792415 0 1 0
5 2 0.9239480775385276 6.185337941133232 3.4116496087622923 0 0 0
6 2 1.0214328657814435 2.8429531587794212 5.414746680606989 1 1 0
7 2 1.524725326770052 6.209187123755052 1.2329333681162293 1 0 0
8 2 0.9836562476768544 0.48410733914248055 6.375378720546337 0 1 0
9 1 2.1143135026294826 4.7345262112827715 4.736847482979173 0 0 0
10 1 0.5824645035706925 1.156230303886663 1.9914443788283145 1 1 0
11 1 1.0101861728839616 2.262688134027028 0.14936813354905887 1 1 1
12 1 0.7034974828356193 5.003603334129597 6.925743326042963 1 1 0
13 1 1.8532476828258113 4.454550106089977 8.953625095966244 0 1 0
14 1 2.215829981849192 0.16869851879679543 8.444016527752455 0 1 0

Velocities

1 0.002199718818982541 0.0020973731481164636 -0.00042628553340612286
2 0.0010618938635874443 -0.002651435696942588 -0.00027269055475256644
3 0.0011607154701340273 0.0001588280325749354 0.004169600011378677
4 -0.0007544550889855888 -0.0012762923255944336 -0.0017258380908975585
5 -0.002377545913654156 0.0013885019915495203 0.0034357611462287755
6 -0.0006504350767902187 -0.0008348964086258424 -0.0009708290698517522
7 -0.0020546572534769917 -0.0009649049584327373 -0.0020504347915481585
8 -0.0001684098867710728 -0.00047612237130699193 -0.0004746977543359451
9 -0.00011292657176235659 0.00037343541348922813 0.0007589611736136518
10 -0.0009584209501295702 -4.236059926770854e-05 0.00026650647588096616
11 4.685257292219991e-05 0.000640204118283464 0.000929355408274089
12 -0.0004487146503883997 0.0007244123246600692 -0.0010001793084978125
13 -0.0007756044080193122 -0.0009556265927916375 -0.002252570218100672
14 0.0015907007743899161 0.0009307992898446461 0.000697270956661941
