LAMMPS data file via write_data, version 7 Feb 2024, timestep = 43, units = metal

26 atoms
4 atom types

0 2.2858575148342073 xlo xhi
0 2.2858575148342073 ylo yhi
0 59.432295385689386 zlo zhi
0 54.860580356020975 50.288865326352564 xy xz yz

Masses

1 51.9961
2 55.845
3 28.085
4 50.9415

Atoms # atomic

3 3 5.994761562744629 5.254478438426574 4.852298105771868 0 1 0
10 1 3.9662522314764326 3.557601336309454 2.5267815836622667 0 0 0
14 1 2.8336501878091447 2.370438344543876 0.678031438082807 0 0 0
21 1 7.137461428100213 6.429824803491607 6.641548202567398 1 0 0
9 1 8.269422075526707 7.592556058198746 8.48222441180905 0 1 0
12 1 11.6762076227497 8.778581038035465 10.293906404352933 -1 0 0
20 1 12.784986890346735 12.484344709714696 12.264490931778777 0 0 0
25 2 13.886088957759776 13.985604225505055 14.23905213683843 0 -1 0
13 1 16.850712928805123 15.167768356315323 16.25650636151607 0 0 0
22 1 17.888934284002563 17.09106063219149 18.423729786045918 0 0 0
8 1 24.179180949061227 23.081512185425947 24.906135111598854 1 0 0
18 1 21.549273077972376 19.836545934547868 22.513213804857095 1 1 0
19 1 25.322116412204668 24.257373822119053 26.759886248427257 0 0 0
16 1 31.277280386260248 27.990804080244825 31.94686124081726 0 1 0
17 1 27.845190647525314 26.853534738267975 30.06751799181966 2 1 0
2 3 33.5652659069514 30.280285577108287 35.58541166676452 1 1 0
11 1 32.42031765630269 29.132856094477404 33.77485251112915 1 1 0
5 3 35.77554143185918 33.64922044492455 37.79811500032673 1 1 0
26 2 36.91983247119318 34.79396732205976 39.630179412579146 1 0 0
4 3 42.45354099711605 38.4515184240693 43.85199647207458 0 0 0
6 1 39.02298361122319 37.31079962258423 42.02249052052609 1 0 0
1 4 46.16518076154387 43.09608760340372 48.532801672200975 1 1 0
15 1 47.280329766237685 44.19788155410854 50.42623063099647 1 1 0
23 1 50.64154058699252 45.292717672110975 52.71444514995566 0 1 0
7 1 52.998897270402935 47.82684847586167 55.68409937980616 1 1 0
24 1 53.52575542069059 49.03292662483778 57.919461821641534 2 2 0

Velocities

3 0.0014043168309982538 0.00029078547219063707 0.004511881576673762
10 -0.0009291970452682426 7.210528982667579e-05 0.0001961044471139427
14 0.0018591161082188905 0.001136579572540481 0.0006672887990667936
21 -0.0012767519227692467 -0.00098747122844565 0.0015628243699535571
9 -4.367495653415151e-06 0.0005269166393145915 0.0007347675866481731
12 -0.00037166353625095016 0.0009108267243351156 -0.0011894381105229577
20 -0.0006936052553621239 -0.0009000850230757523 -0.0019148136085770163
25 0.0014126982812286935 -0.0008305670711973126 0.0009085170293065588
13 -0.0007292263007808819 -0.0009268550806731991 -0.0025593444641364266
22 -0.0006721665152756205 0.0017289468272323016 -0.0009571393151238361
8 -7.908510383333488e-05 -0.0001888526883089397 -0.00046787744940972586
18 0.00044538145667501617 -0.00088616563365818 0.0022808811666629133
19 0.000880380503842716 0.0014440348804624784 0.000596908552238828
16 -0.0012497441263710604 -0.0007986403044848005 9.816866023892985e-05
17 0.0005338862846845313 0.0007780750706148708 0.0004459448912558202
2 0.0018053092601537223 -0.003983945787358552 -0.0005244622502112708
11 0.00017040418609546364 0.0008187170195638744 0.0009211504028205274
5 -0.002505806056429895 0.0016496947695905679 0.0037009182726470678
26 -0.00036530317520669364 -0.001244812520988735 -0.0013850843758179533
4 -0.0007121328668261269 -0.0012951620737999513 -0.002003150795085653
6 -0.000470576351693845 -0.00048024180754632046 -0.000870825411125679
1 0.0025800335412238264 0.002453726836222923 -0.0005723983054497405
15 0.0003363169420320665 0.0012355301533135254 -0.0002719754972273916
23 -0.0015223864611818361 -0.00047890494433901865 0.00013152559878997833
7 -0.0016110576037268996 -0.0005858321593584633 -0.001747659651194097
24 0.0017362014636298365 -0.0007903226343325145 0.0003453641784325593
