LAMMPS data file via write_data, version 7 Feb 2024, timestep = 25, units = metal

15 atoms
3 atom types

0 11.429287574171036 xlo xhi
0 2.2858575148342073 ylo yhi
0 6.857572544502622 zlo zhi
0 2.2858575148342073 0 xy xz yz

Masses

1 28.085
2 51.9961
3 55.845

Atoms # atomic

1 3 0.31853800465454746 1.3875886726736197 0.3724645750950071 0 0 0
2 1 3.7051626864979474 1.8437787906983933 2.397753355808141 0 0 0
6 1 2.317296825999253 0.05379834635811803 0.3088473030700143 0 1 0
9 1 1.2625555641559192 0.21071193538787944 2.4287248279262537 0 1 0
12 1 3.8754000523455705 1.7797288081220013 5.179268629680246 0 0 0
13 2 5.460953457834759 0.8066453030550166 1.5927913527859656 0 0 0
14 2 6.488393923663896 1.9109867196238046 3.9960822776282847 0 0 0
15 2 6.400649261874149 1.1961863111391233 6.579588429928406 0 1 0
3 1 12.569572820934594 1.432472775216049 4.990222749728148 0 1 0
4 1 9.808290501578277 0.21476114885057673 0.5348567602023508 0 1 0
5 1 8.291532472094154 0.39475765068732394 5.555672575318467 0 1 0
7 1 8.36004403520068 0.9666989194317808 3.0577117943791694 0 0 0
8 1 10.529066689368879 0.6863485362745998 2.6067045450199524 0 1 0
10 1 10.65815990923229 0.37537227844300713 5.708436191782988 0 1 0
11 1 7.110378284517833 1.5258519584284815 0.24374940988826088 0 0 0

Velocities

1 0.0021181227305301915 0.0019781509974428394 -0.00038048037171878264
2 0.0015096293466801693 -0.0039315491617436474 -0.0003579148658378379
6 -0.0007274585916853359 -0.0009736743027808618 -0.000957885433907943
9 -0.00013678143451872855 0.0003023750053784591 0.0010763683028109175
12 -0.0006021380623213727 0.000788781290221423 -0.0013615612566187042
13 -0.0008504134305576476 -0.001084927100929809 -0.002252703459663243
14 0.0015597318053315315 0.0008364482092763102 0.0007517888208909259
15 0.00014177135974293128 0.0009285864325691007 -0.00012281083064012152
3 0.001136243665791777 4.8883699104298336e-05 0.00433169653892121
4 -0.0008344968121582453 -0.001427877609232974 -0.0017348015325327963
5 -0.0025046826722802977 0.001314237447412891 0.003576564862028356
7 -0.0021724251877173035 -0.001107455135179313 -0.0020688166174739646
8 -0.0002314471274119071 -0.0006044902035292348 -0.00044735854573613724
10 -0.0013085217010373612 -0.00027386174234075026 0.0003938930391858817
11 8.465073861807317e-05 0.0006720801639840998 0.0013125115475712556
