LAMMPS data file via write_data, version 7 Feb 2024, timestep = 61, units = metal

67 atoms
3 atom types

0 4.571715029668415 xlo xhi
0 18.28686011867366 ylo yhi
0 4.571715029668415 zlo zhi
4.571715029668415 0 0 xy xz yz

Masses

1 50.9415
2 28.085
3 51.9961

Atoms # atomic

3 3 4.421407483635003 3.422677593210784 0.6841602610031978 0 0 1
6 3 5.0345105509096975 4.9982784529893625 4.260767060705239 0 0 0
7 3 0.8188538655659844 1.2173243134533034 0.5575141521198307 0 0 0
8 3 1.8067639960289068 4.743485490653008 2.575930385792918 1 0 0
10 3 4.257224524258099 3.608312190330314 2.9301139351865246 0 0 0
11 3 4.722221577491672 8.668862649999156 3.987987697664986 0 0 0
14 2 4.407509606791564 7.156685533191256 2.349642375808612 0 0 0
19 2 1.307411513293859 2.9082229188996322 1.6277740656864612 0 0 0
24 2 3.768014758300313 3.5722643808024155 2.978254735337951 0 0 0
25 2 5.205426617944227 5.220554703903729 2.0325219287169234 0 0 0
27 2 6.146135703108587 6.809328273624591 3.599740711086418 0 0 0
28 2 3.3226256353895414 9.251391661344433 2.5551421819453717 1 0 0
31 2 6.173676292763391 6.811551630188588 3.591338279696732 0 0 0
34 2 2.7267572339286144 1.4284294347272346 2.7140422216601725 0 0 0
39 1 0.7574353598299144 1.2435126159527317 2.817617929512501 0 0 0
40 1 1.7253957899734709 2.9489706914632965 3.8571819230163347 0 0 0
42 1 2.6445055909314 8.855678271421237 0.6407648072014372 1 0 0
43 1 2.860046883295759 4.889402281752462 4.442415958065768 0 0 0
44 1 3.4416082925171443 5.76580579324468 3.0260316479670486 0 0 0
47 1 2.041881359405758 6.744490134032532 1.315152772151123 1 0 0
48 1 4.024308649554438 1.7011441027039305 1.9897053011967503 0 0 0
49 1 2.5772281460926543 3.1924019739939924 1.337741497088852 0 0 0
50 1 3.9536329215288433 2.134523609602805 4.337594353756159 0 0 0
52 1 6.227564753146133 7.017241018984554 1.253901578453502 0 0 0
53 1 1.6471658912260805 2.953306036487979 3.9076042170573513 0 0 0
56 1 4.272718063745337 6.763163708032369 0.36657166105434286 0 0 0
57 1 3.4804591249885757 5.168963747763075 1.368104438180151 0 0 0
58 1 4.903945059237097 8.841961239704785 1.0600312597579662 0 0 0
59 1 2.3522330847532587 8.686861547955207 4.424567966671849 1 0 0
60 1 3.3431926871229103 7.821656501772843 2.4827143668367198 1 0 0
62 1 1.4058104055693987 4.914764732033673 0.35877332134071854 1 0 0
63 1 2.6559743362905746 1.2596609513292403 0.477168879882806 0 0 0
65 1 3.753070418404946 7.012180854890445 0.045235376323987615 1 0 1
1 3 6.288721046216448 15.746640399562077 0.8949842813748824 1 0 0
2 3 5.519391979434122 12.21491074311065 2.8569121360456795 1 0 0
4 3 8.001915585579223 14.031207852186126 0.7753298797128625 0 0 0
5 3 4.827626806271163 12.16292621107823 0.5515281611755375 1 0 0
9 3 8.70471382335238 18.252373233647436 1.3847683291112656 0 0 0
12 2 6.547359529505421 17.840530559722488 1.7992842265341669 1 0 0
13 2 4.7262208495872144 10.582824906333542 2.6858806398870025 1 0 0
15 2 7.418089146329919 17.28593206838631 4.205836068920355 1 0 -1
16 2 4.16019032349045 12.260087096257939 4.018292677958941 1 0 0
17 2 5.097835744365526 17.14661140759143 0.3193212337605918 1 0 0
18 2 6.9266317787903 15.132356337225927 3.813884622871256 1 0 0
20 2 6.312179760180248 10.59948139238352 1.440219844725369 0 0 0
21 2 7.995833323636849 16.308082435812096 0.84871997883827 1 0 0
22 2 5.648498962035037 13.965787482176843 4.561543783869563 1 0 0
23 2 4.522133644712801 15.520223105479547 4.018631609527481 1 0 0
26 2 5.903352763856244 8.83043258732793 2.5459745673619634 0 0 0
29 2 7.788052808945521 15.998209636215854 2.4412527181273362 1 0 0
30 2 6.143178339606558 18.24576836621478 3.9801199549975292 1 0 0
32 2 4.038685179496749 14.004823688043887 3.0429233051895297 1 0 0
33 2 3.179886324422795 12.295455198730927 2.1655026464667237 1 0 0
35 2 6.452716675862708 14.154546632262424 2.2666702864827237 1 0 0
36 2 4.528227969552201 17.319505856978417 2.627095122947015 1 0 0
37 1 6.895670743069584 12.099644596756422 0.5537935808824005 0 0 0
38 1 3.8726826256193445 0.1581417260189693 3.7413072229812543 1 1 0
41 1 8.018318345869407 14.038613440699761 0.7714928733271419 0 0 0
45 1 6.57808635008416 17.90005822589292 1.7599960148919416 1 0 0
46 1 5.261521393571519 12.90169301731574 1.7783203625128472 1 0 0
51 1 7.052910229577549 10.773497885530881 3.199030708309347 0 0 0
54 1 3.969546546495553 10.701763048980792 1.2887746326809277 1 0 0
55 1 3.537805901062948 10.408849286602827 4.4793761519275845 1 0 -1
61 1 4.9726629942943825 15.247315594718838 1.7228229043672068 1 0 0
64 1 6.765415854478174 12.900983760593103 3.7881257074810915 1 0 0
66 1 5.886670188417494 16.20853724952881 3.133542811662358 1 0 0
67 1 5.707124965742318 10.44170993708418 4.3047531602340285 0 0 0

Velocities

3 0.0011297710827931932 -3.139182114416915e-05 0.0034564108479180726
6 -0.0003143914575066065 -0.0008237608573900218 -0.0006424284963803471
7 -0.0014340803035129044 -0.0009274261644340263 -0.0015032769466734705
8 6.99624130695978e-05 -0.0005376841278724742 -0.00024682678223551086
10 -0.0007646509196656933 -0.00028148374152334773 0.00040504989014499406
11 0.00031490319980618733 0.00045151631840221497 0.0011168773471938978
14 0.0026734297740819107 0.0010148976029662898 0.0011197251602435966
19 0.0013659867871756697 0.0014256114712800187 0.0010257077772848923
24 0.0025092343679502813 -0.0015591527999880557 0.000689682474886346
25 0.0021514869283100163 -0.0016739706164965243 0.0014882542750983534
27 0.0010865040481301516 -0.0014508322160361991 0.002912965960629795
28 -0.0032690114466806973 -0.0011053863034954548 -0.0025892167416485088
31 0.0021896259163203336 0.0037984821296402006 0.002705508440929297
34 -0.00023813323606203292 0.0023322829309143 -0.0023130214772466772
39 0.0014709775791270365 0.0011566216520782695 0.0017607752461864488
40 -0.0027558085342325235 0.00026484976952080905 -0.0008137259654701954
42 -8.387270920566761e-05 -6.98957065696681e-05 0.0010121029886992069
43 -0.0006809464470753784 -0.001489252759009198 -3.521305993606783e-05
44 -0.00027862010339332676 0.0013337010615346243 -1.4666584089848133e-05
47 -0.0007479433621546446 0.0015197356632425363 0.00036423883887824494
48 0.0008367867845417252 0.001524592998100719 -0.0014136619784016014
49 -0.00026916858459659934 0.0015252240558728068 -0.0012006807713039619
50 -0.0013343115888493158 0.001675827191320621 -0.00022561136663553713
52 0.00020639726860134815 -0.0003961426903436328 -0.0005224775998973132
53 -0.0008171837730258139 0.002190072241331712 -3.996484407482334e-06
56 -0.00023853707665517018 0.0008284528217346234 -0.0011928043356714212
57 0.0005452249429206171 -0.0008288020145464458 -0.00033651069909524034
58 0.00020624445538324038 -0.0009459831978537862 0.0008595043272094052
59 -0.00032103205487905606 0.0014355039481224454 -0.0012452168954780393
60 -0.000866256048646616 0.0045464459655835164 -0.0015825864972661466
62 -0.00045960539309942386 -0.0012860187678372232 -0.00022782986309281302
63 -0.0003732306699311737 -0.0008829943315894613 -0.0016290437602256738
65 0.0005847148924466648 -0.0019957347742053837 0.00023074529288873296
1 0.0026535866759069895 0.0020364340106088876 -0.00034416071188832247
2 0.0014191035720682256 -0.0031157858056192135 -0.00017751785080214515
4 -0.0003973342064178957 -0.001175718042732706 -0.0012444523025374077
5 -0.0016915430022970245 0.000949116989318358 0.002871267552422642
9 0.0001433178253836446 0.0001650358256776849 0.0009338925239156465
12 -0.0003065550026589755 0.0007133258844751226 -0.001360581641398198
13 -0.0007842048672119635 -0.0017415395330905652 -0.003190569685913881
15 0.0006392000174494864 0.0011470806382043667 -0.00013499011888838238
16 -0.0014795380885484159 -0.0015702639514158581 0.00035946658694701634
17 0.0009031228279855178 0.0005359897194468085 0.0008240431204077896
18 0.00078489374122195 -0.001687184575630131 0.00327524092497727
20 -0.0007366205289996962 -0.0017057787781856017 -0.002329573781424495
21 -0.001515616426594682 -0.0018225135540049031 0.0023160254648874217
22 -0.0007079816093069052 0.0018062108129453676 -0.001050265525837109
23 -0.0018437470812408749 -0.0011431457875119397 0.00040402642024441477
26 -0.00030999270885094803 -0.002247455377016588 -0.0016870261129146053
29 -0.00015028728288884736 -0.0011437747949077522 0.0012103091622272554
30 -0.0017621020879011122 -0.0006598352820831698 -0.0014101977129536624
32 -0.0009098674451963088 -0.0028741714628658667 0.0016857088395511562
33 -0.0005770731978327218 0.00038967353125339435 0.0004071139856405665
35 -0.0011329196879981537 0.000941325094196303 0.0008082392073288421
36 -0.0011656957159888238 -0.0012976755707731268 0.0008275794891495889
37 -0.0006011946140709154 0.0020379955447293765 -0.0001405080470450368
38 -0.0015041239181317362 -0.002384263076865246 -0.001425759748995754
41 2.8041606044759334e-05 -0.0013279628968080094 0.0003028643725750058
45 0.0008262170712684656 0.0003599905167984821 -0.0012048031101109266
46 0.000691565337301123 -0.0014282339304178052 0.002140431061976467
51 -0.00017148064880341746 -6.370396447894488e-05 0.0003308134570697713
54 0.0003212078316070471 -0.00023626238101563953 0.0016895479187948022
55 0.0023778689924065094 -0.00019504718038470582 -0.002170902705453973
61 0.0008537376805598475 0.0004571792927531886 -0.0007788350874436527
64 0.00154897167989314 0.0018129548938300589 -0.0025092938433891486
66 0.0015088102109479752 -0.001705528399134677 0.00036856474802502006
67 -0.000229827092936398 0.0012063801776582052 0.0015892716420729343
