LAMMPS data file via write_data, version 7 Feb 2024, timestep = 22, units = metal

17 atoms
3 atom types

0 2.2858575148342073 xlo xhi
0 2.2858575148342073 ylo yhi
0 38.85957775218152 zlo zhi
0 16.001002603839453 13.715145089005246 xy xz yz

Masses

1 28.085
2 51.9961
3 55.845

Atoms # atomic

9 1 4.326060194997582 2.12631992117236 5.886370003894937 0 1 0
11 1 1.4250958275415266 1.7150617237218762 3.411653515501003 1 0 0
2 3 3.1780151561688657 3.300105366616473 7.423507482058205 1 0 0
5 3 6.565020135993532 4.792017847105712 11.99398536931053 0 1 0
13 1 4.229827466843937 4.109922774733331 9.78062439337329 1 1 0
12 1 7.768976716368038 7.949748144841658 16.517328334673497 1 0 0
14 1 5.959733805950812 6.0754267528373465 13.864062857932065 1 0 0
10 1 8.33548675029781 8.582268834598626 18.8529147300776 1 0 0
3 3 11.036209009189205 10.82485710980566 26.052890194878483 1 0 0
6 3 9.569506939247054 7.250522685179223 20.536014420503115 1 1 0
7 3 10.811565665879566 8.343008553919088 22.183714426322613 0 1 0
17 2 12.052313039182724 10.107538191819913 24.049486219044812 0 0 0
1 3 13.322077135332112 10.85647930577631 29.08158661946903 0 1 0
4 3 12.18941231696976 11.974590842947574 27.54810788313978 1 0 0
15 1 14.461108732931507 12.099159182693834 30.696763409165193 0 1 0
8 1 15.4639553603741 15.09440794668717 36.519587698562226 1 0 0
16 2 14.310667608178376 13.870117584474574 34.682180656124835 1 1 0

Velocities

9 3.802981570135395e-05 0.00045005873454882826 0.00098111901527534
11 0.00026991630447919385 0.0008372185130835957 0.0012284111187685885
2 0.0012162823923599275 -0.0027328609611024235 -0.0003848026874809248
5 -0.0017649162479705825 0.0011628830251189622 0.0025371091020665345
13 -0.0009237104473592382 -0.0014788007709451306 -0.0033894979488319522
12 -0.000449297355061605 0.0009594293644528486 -0.0015719107338143842
14 0.002510493692417447 0.001258957496116402 0.0008915883832950693
10 -0.0011890309691591733 -0.0001533834583380089 0.00026642254493916827
3 0.000938990323650328 0.0002231775771673738 0.003097901964651849
6 -0.00044507414610916334 -0.0005362174350988972 -0.0008303663191370658
7 -0.0015181677250504992 -0.0006355687644835586 -0.0016553910103680749
17 0.0005223867139755772 0.0006597633309083612 0.00042537945000624216
1 0.00239939312599449 0.0022049519159382286 -0.000544510792858429
4 -0.0005245652758046245 -0.0008735281058273037 -0.001407337218741197
15 0.0004900487998160157 0.0013902447991187177 -0.00035462437567464623
8 -6.11052594855686e-05 -0.0004996216398494734 -0.0006145464373136579
16 -0.0012168595402796216 -0.0008777167956755608 8.625734075876486e-05
