LAMMPS data file via write_data, version 7 Feb 2024, timestep = 49, units = metal

69 atoms
3 atom types

0 2.2858575148342073 xlo xhi
0 2.2858575148342073 ylo yhi
0 80.00501301919725 zlo zhi
0 29.7161476928447 20.572717633507864 xy xz yz

Masses

1 50.9415
2 28.085
3 55.845

Atoms # atomic

18 2 2.782404767565307 2.1557880599990815 5.082089583538974 0 0 0
25 2 1.7841341475283683 1.6212811712108544 1.4910644838872351 0 0 0
28 2 0.6788109259718595 1.1944488626240186 0.3810001159393541 0 0 0
30 2 2.791295775683332 0.7221270021462165 1.5253800993004574 0 1 0
37 2 3.581056205135745 2.174150117622309 7.225350017550748 0 0 0
39 2 2.0635258447287326 1.5119462086846824 3.302698656921149 0 0 0
52 1 2.8583037154833435 3.380234597166189 6.472526063558519 0 0 0
58 1 1.5094840172844852 2.898088350207752 3.764061806667106 0 0 0
60 1 4.644721253959887 2.4633456667040776 7.628087965050023 0 0 0
64 1 31.7931589533774 22.308299820863343 79.96783436706683 0 0 -1
4 3 3.703360267442563 2.103523373255979 7.695794611434974 0 1 0
11 3 5.1856342499565296 4.653094868360427 10.500861277316519 0 0 0
15 3 6.294295629560961 3.9761302427158522 13.889597901082615 0 0 0
19 2 5.125094493554517 5.407001921870242 12.80151889739037 0 0 0
45 1 4.13309546002529 3.440704030603878 9.057479747742875 0 0 0
35 2 4.367677343028739 3.1235782482652756 10.972128152402032 1 0 0
36 2 6.654043816319167 4.399057846436434 16.354512002748898 1 0 0
67 1 7.153413658288373 5.001361763960049 14.049289205336143 0 0 0
3 3 8.05565473428236 6.5305631462687685 18.043623087022777 0 0 0
21 2 7.435789087495306 4.787737924271162 15.06712736607745 0 0 0
48 1 9.01754727135584 7.216088769307263 19.67205408485082 0 0 0
22 2 10.01515009014614 7.693296482840201 21.817390249399917 0 0 0
33 2 9.271548809309188 7.082385832976719 23.585561277382453 1 0 0
51 1 8.900181998920578 5.982005392709582 20.90448781046824 0 0 0
57 1 9.867295786854802 8.40832333187016 26.421499593895774 1 0 0
66 1 10.93537944639367 8.236036853988534 24.894590166506536 0 0 0
24 2 11.483043415796502 9.374272634353819 28.097906553727476 0 0 0
27 2 12.187266234483424 9.641211798231105 30.44098664872632 0 0 0
55 1 11.061528497747044 8.845958554044907 27.102088374650133 0 0 0
13 3 12.861698351109316 10.644656530317631 33.521566354996814 1 0 0
14 3 13.331805082118105 8.440126424948357 31.692863428378985 0 1 0
17 3 10.646433338057387 7.393571986042498 28.621932356624164 1 1 0
5 3 14.21075995457358 11.079610861495338 36.23710345730733 1 0 0
9 3 14.341787491495111 9.307148416613233 34.53323907060284 0 1 0
26 2 16.1994165290472 10.594799888287099 39.13046037556949 0 1 0
54 1 14.961574098990736 9.662943997127298 37.57159582186778 1 1 0
16 3 16.80771127277795 11.17939155068815 43.397951024616674 1 1 0
41 1 15.957115447874745 11.142282014159113 41.0339808112487 1 1 0
44 1 18.073199300445886 12.052776221591307 44.857494923426856 0 1 0
46 1 15.537084144649482 12.068791669131663 41.58259681384337 1 1 0
47 1 16.98084300196591 12.29178918862518 39.84178692726739 0 0 0
69 1 19.475486957791905 12.488476726163208 46.37926628056777 0 1 0
49 1 18.70562053842778 12.51499276553646 48.51320906746682 1 1 0
50 1 18.86813106173138 12.310194563707567 46.92210456383226 0 1 0
10 3 19.366364932237463 13.435826909229935 50.161577948682414 1 1 0
53 1 20.548749728705342 14.735258507690954 51.846499998132366 1 1 0
42 1 20.671491183553606 14.148124857803317 53.38790471594075 1 1 0
2 3 21.86714479943748 15.291722717391789 53.89854093679899 0 1 0
20 2 23.995512237498744 16.816038260816374 58.87419381796883 0 1 0
32 2 22.78620623976729 16.049491504012792 55.660033597485985 0 0 0
43 1 21.345141162589034 15.38630188344953 57.2684354747618 1 1 0
6 3 22.881401002391684 15.615931457805521 60.06607901524591 1 1 0
8 3 24.62376930915496 17.586901169254993 64.56483956410567 1 1 0
23 2 24.53659899436228 17.64732474465095 62.70999615126945 1 1 0
40 1 23.215209872199292 16.73372579989195 61.29910247081361 1 1 0
62 1 25.995711678987764 18.419889122704724 65.87056158871323 1 1 0
12 3 27.32577034523572 19.149875164266522 70.66034286967195 1 1 0
29 2 27.074587824326784 19.206370052615732 68.87341839364686 1 1 0
34 2 26.849185991270687 19.699265270952328 72.01962496466919 1 1 0
59 1 26.74946038144316 19.085056426606 66.75532356964929 1 1 0
61 1 26.68819096372706 18.059626701840443 68.53382596074445 1 1 0
65 1 25.44179967158101 17.890725422715544 66.90489872013308 1 1 0
68 1 28.47277029350053 20.79704212011025 73.05801401381267 1 0 0
1 3 29.948982991395418 21.334786016756684 77.63492340122377 1 1 0
7 3 28.772865782495114 20.544157252260213 75.93032305901156 1 1 0
31 2 31.632275708898526 20.771442045391396 79.48569379107548 1 1 0
38 2 31.382139405800242 20.396080884638817 78.3871182585288 1 1 0
56 1 28.963819555617366 21.49043080455896 75.07576868371908 1 1 0
63 1 27.72380870288368 20.91708939235296 74.02675664577235 1 1 0

Velocities

18 0.0006628500464023031 -0.0016136137223349526 0.0031475131066529913
25 0.001964148331798981 -0.0016010311172654046 0.0014459074748635122
28 -0.0031973622830760054 -0.0010596133796369066 -0.0024367447240350973
30 -0.0017624520381285356 -0.0006353504858228593 -0.0013140584301279486
37 -0.0008655250309481388 0.0025845156266154816 -0.00020713645746116695
39 0.001791906588327535 0.0014542085708488136 0.0022311408040614085
52 0.00011199374546224639 -0.0003842569484449705 -0.0004687529859424367
58 0.00011184823355673681 -0.0009078264469796451 0.0008471987758434777
60 -0.000909408919023511 0.004322178151735716 -0.0014782105944786677
64 0.0013904208559867453 0.0017192914416099812 -0.0023606404880038546
4 -0.0004486106755056145 -0.0010850862141757373 -0.0011090334922092251
11 0.0002058079066309781 0.0004100506518635959 0.0010606054341238274
15 0.00035547275933611483 0.0007860451069978649 -1.567716440999841e-05
19 0.0012161788581511494 0.0013504550268038495 0.0010054611370594686
45 0.0007021989755821663 0.000335748723529828 -0.0011184774430175834
35 -0.0011633315493603414 0.0008893075265131161 0.000798383068849226
36 -0.0011945415608175581 -0.00124271519528535 0.0008167992850357365
67 -0.0003033881100019198 0.0011416984566768994 0.0015420983001078632
3 0.0009545255111163964 -3.365541752071487e-05 0.0032102176042030865
21 -0.001527743295641402 -0.001742476773305385 0.0022341283149428697
48 0.0007122636750769259 0.001444707282965157 -0.0013173571753069492
22 -0.0007586967257527762 0.0017128695883659117 -0.000971323560395524
33 -0.0006340430299749267 0.00036401350355400427 0.00041642333998173707
51 -0.00024782941965675295 -6.770192091043284e-05 0.00034376839925603193
57 0.0004346324617989721 -0.000796244101656004 -0.00029167145835929325
66 0.001352178274967653 -0.0016310810903122134 0.0003797159589656286
24 0.002304802839817487 -0.0014916992186673821 0.0006854908972012848
27 0.0009500496160664214 -0.0013885541192321439 0.0028025473960072143
55 0.0021797140134053998 -0.00019276964645708307 -0.0020384174506369213
13 -0.0006057214031397985 -0.001164576867240508 -0.0020790431641017453
14 0.0017291435878403602 0.0006967847965842144 0.0008316045998069632
17 0.0005336940564281271 0.00037338878539790616 0.0006319369903293229
5 -0.001637756707132966 0.0008672565254746592 0.002672575741477926
9 4.815168629810679e-05 0.0001468264007638224 0.0008924751624534387
26 -0.00037972346680232655 -0.0021471151623322785 -0.0015776601556611127
54 0.00022131873712497404 -0.00023201561257198502 0.0016375834438924416
16 -0.001075264707737305 -0.001048918215893705 0.0003182186261465273
41 -5.7840203710457054e-05 -0.0012715554132893808 0.0003171547031867997
44 -0.0003498498232951326 0.00126293603450839 1.4795161684333927e-05
46 0.0005739808107376925 -0.0013670355644742492 0.0020669236942904225
47 -0.0007967491329750128 0.0014400820282937073 0.00037559673884316104
69 0.0002061941968362506 0.003528013501703013 -0.0009112364112080324
49 -0.0003408498916982372 0.0014453081892220909 -0.0011145520667812524
50 -0.0013551010808833363 0.0015887156083320873 -0.00018607082128239554
10 -0.0007861089318146485 -0.00026344508948701384 0.0004065635218386419
53 -0.0008626812836677907 0.0020783903763433795 2.4955451193211354e-05
42 -0.0001644073283842162 -7.359782573595377e-05 0.000992506376105728
2 0.0012203702361235052 -0.002867660933703533 -0.00012871186765585268
20 -0.0007859672971590718 -0.0016313195064207864 -0.002189507329507494
32 -0.0009509365924306906 -0.0027438871758705173 0.0016339277932683497
43 -0.0007329532853568308 -0.0014251389545490137 -4.769617389825865e-06
6 -0.0003724011480830124 -0.0007617006124199656 -0.0005558814642549021
8 -1.924879632060636e-05 -0.000498847347375015 -0.0001923943592543849
23 -0.0018401960886975583 -0.001095568740948794 0.00041348329637986344
40 -0.002708679859997049 0.0002451537370528348 -0.000746085700846534
62 -0.0005221877578039396 -0.0012316153465395645 -0.00018818331947372866
12 -0.00028317490462546955 0.0004931400160265846 -0.0008432922932540943
29 -0.00022764865848584484 -0.0010961676947950493 0.0011812423922106174
34 -0.00031129739120555253 0.0022138063349969 -0.0021737458832706263
59 -0.00039023536031533866 0.0013598748477681307 -0.0011569602849499894
61 0.000728404668704533 0.0004282938852535937 -0.0007128618854632081
65 0.0004722356081443341 -0.0019074216003182533 0.00024848142453530485
68 0.004161508895210904 -0.0029326932672355207 -0.0006646744932114629
1 0.0023546390563595116 0.0018663060800020743 -0.0002818268036620232
7 -0.0014011946102548993 -0.0008569504584118342 -0.001346846972879237
31 0.002000465064659579 0.0036099515239082242 0.0026050020568165926
38 -0.002023475557674749 -0.003086755288135843 -0.0018553916182548601
56 -0.0003116819365672507 0.0007818282151782023 -0.0011070519619362236
63 -0.0004399399607108217 -0.0008478471463045829 -0.0015224481607161169
