LAMMPS data file via write_data, version 7 Feb 2024, timestep = 43, units = metal

25 atoms
4 atom types

0 2.2858575148342073 xlo xhi
0 2.2858575148342073 ylo yhi
0 57.14643787085518 zlo zhi
0 4.571715029668415 45.717150296684146 xy xz yz

Masses

1 51.9961
2 55.845
3 28.085
4 50.9415

Atoms # atomic

16 1 1.4552665330807582 6.266357054465266 5.368526972231202 0 0 0
8 3 3.202353394985745 11.257167677061476 12.821636416667124 0 0 0
9 2 1.7862623320239162 10.729918195534374 10.982060741457621 0 -1 0
13 2 2.7855405083619487 7.758886584199532 7.049470913767684 0 0 0
14 2 0.7171052156485446 7.303820517249814 8.79370068407916 1 1 0
19 1 1.3389191867843848 13.819944461610842 14.507838888760144 1 0 0
7 3 3.1289161416324216 15.037892778567631 16.330906871741288 0 0 0
22 1 2.2802948406332053 18.059310371964553 20.641734161759704 1 0 0
23 1 3.5359249699636077 15.804951319030705 18.139839933086336 0 0 0
15 1 2.883667502247776 18.564487692756202 22.096048322395617 0 0 0
4 4 2.3151228207157963 23.37697724698831 28.269487622866798 1 1 0
17 1 2.0831479636760917 22.47159015607343 25.725845104973423 1 0 0
25 1 2.0634611565533567 18.91973870327162 23.57355689614871 1 1 0
5 3 3.626162504969654 26.84339961436352 31.406675032539308 1 1 0
21 1 4.830315340052664 27.66979556439315 33.42558277838621 0 0 0
10 2 3.5918040212602453 32.82954709732588 40.12942558908491 1 1 0
18 1 5.636814366649162 33.91613445614591 42.14524718515827 0 1 0
20 1 4.595108714078954 31.66946030730262 38.2836757009325 1 1 0
24 1 3.4856576240524326 31.027339341520534 36.14171546881519 1 1 0
6 3 5.227073442726419 35.60864585783695 43.24031870860799 0 1 0
3 4 3.9811222130332284 36.5988412733612 44.55115128800271 1 1 0
11 2 5.61845161431907 37.43962520240304 46.351701583521624 0 1 0
1 4 6.050943838252303 40.90876349322738 50.84399410260262 1 1 0
2 4 4.580249237481114 43.4509277128137 53.16488381869388 1 1 0
12 2 5.751696253688776 44.386089430937076 55.16934329276862 1 1 0

Velocities

16 -0.0013073128237765564 -0.0008422105784800244 -1.1612308956891297e-05
8 -0.00012136946216225859 -0.000454239322338622 -0.0007307215540709984
9 -6.524777918943043e-05 0.0004806106162368235 0.0005980055562820382
13 -0.0007650918737824938 -0.0009229917762883572 -0.002582427445789377
14 0.0017339274344050264 0.0010692342219546212 0.0005328554461294495
19 0.0008240611584714865 0.0014017799711951069 0.00048742010193594
7 -0.0022070788045911367 -0.0009947084179509715 -0.0024730855290909883
22 -0.0007293964542098355 0.0016868590233611283 -0.0010675392392611174
23 -0.0015801150676606284 -0.0005222876884512681 2.1764193970083644e-05
15 0.00027967849471343125 0.0011931529527016368 -0.00038197356186896425
4 -0.0006167082532534861 -0.0008953689123521213 -0.0016095692102660476
17 0.0004773637149331756 0.0007354295653084829 0.00033636789836050633
25 0.0014124217024782894 -0.0009198896350310224 0.0008338797584408567
5 -0.0025641114541698332 0.001607560483124888 0.0035932503735004685
21 -0.0013343364606776373 -0.0010311522547863643 0.00145390244466741
10 -0.0009581616739020466 4.149470174221085e-05 7.793155771662331e-05
18 0.0003888069774319116 -0.0009297872426534793 0.0021723803931286228
20 -0.0007508477684589768 -0.0009437147960147185 -0.002025775223945749
24 0.0016803840708870645 -0.000833888029881671 0.0002357281933466518
6 -0.0006543665970315433 -0.0008509520624940436 -0.0012793164722709185
3 0.0009556950467160928 0.0002829010732080003 0.0032307340633216945
11 0.00010349257204703185 0.0007623410325232887 0.0007779563443653931
1 0.00252471106943909 0.0024120641273747286 -0.0006825725728548833
2 0.0012536099083426296 -0.0028929842530096635 -0.0005109866406081006
12 -0.00041986851796130297 0.0008512720525824685 -0.0012597962451470505
