LAMMPS data file via write_data, version 7 Feb 2024, timestep = 33, units = metal

62 atoms
3 atom types

0 2.2858575148342073 xlo xhi
0 2.2858575148342073 ylo yhi
0 66.28986793019202 zlo zhi
0 41.145435267015735 59.43229538568939 xy xz yz

Masses

1 50.9415
2 28.085
3 55.845

Atoms # atomic

10 3 5.600660165986757 5.67607562668535 5.6146538661564565 0 0 0
13 3 2.669385722476078 3.7611282987430914 3.2322034462095486 0 0 0
15 3 4.32993225530073 6.7104076905917776 6.9759386116292275 0 0 0
28 2 4.088792237458517 5.073920963367864 4.744823939073263 0 0 0
35 2 1.963325211231025 4.0223238522644476 2.095456506373068 0 -1 0
36 2 41.91033414614435 60.81887186299543 66.16746389393491 0 0 -1
37 1 1.0623418653425898 2.905708965892502 1.4921940939161484 1 0 0
62 1 41.215478060192304 59.23524893626209 65.97229762224843 1 1 -1
21 2 5.230010472961966 7.124309154483453 7.2713855001709 0 0 0
31 2 5.834219038839709 7.95528353900958 7.844847838245404 0 0 0
48 1 6.7761111376339125 8.718856503502403 9.572734941939453 0 1 0
19 2 9.985673504645288 13.494600806274196 12.871138804971512 0 -1 0
47 1 5.961964674900781 9.473032104413381 8.596833320593085 1 0 0
49 1 9.547215796863213 14.579023404879813 13.907777764790016 0 -1 0
50 1 7.515785915328178 9.889777436442012 10.670861524622273 0 1 0
59 1 8.654684709649587 11.12075374274179 12.092746035200287 0 0 0
1 3 13.285527224718317 17.786807035662022 18.416705234596105 0 0 0
4 3 11.560211294037869 16.655992054310307 16.59845456466582 0 0 0
20 2 10.412479510176757 14.744267800042556 14.388138979750092 0 0 0
27 2 11.530913663273484 15.950649161358799 15.480405240206887 0 0 0
30 2 13.780036514863461 19.202908073456218 19.373709048677274 0 0 0
54 1 14.522588591450294 20.447226416277704 20.361603358120377 0 0 0
45 1 13.451832958220288 19.410931206024426 21.216701850165506 1 1 0
24 2 18.034852350894187 25.218147075772798 25.7562883263995 0 0 0
29 2 14.90849631275682 21.72394141118536 22.14086795434066 0 0 0
44 1 15.963346643236799 22.30937662104334 23.282773400809337 0 0 0
53 1 16.97207586554619 23.928655722587795 24.58575382748851 0 0 0
55 1 17.016738518587594 24.824896611219682 26.784462350136636 1 0 0
2 3 18.467011285451356 26.409111887948068 27.583806301163207 0 0 0
7 3 19.441394239310487 27.12809918459007 28.975484341858298 0 1 0
17 2 21.344696884879934 28.086221781152044 30.822153463605993 0 0 0
18 2 18.489926497052174 26.41042968208583 29.0758233298495 1 1 0
40 1 19.685718162489735 29.005361677260314 31.55063750883119 1 1 0
43 1 20.630410766191446 30.476579600777722 33.10718680835827 1 0 0
5 3 21.792213274034896 31.252059122561217 34.181607266682086 1 1 0
26 2 22.586626508833074 32.256351542592185 34.51664527495648 0 0 0
51 1 23.02150995913519 33.92562250959693 36.779829202026185 1 1 0
58 1 24.06870662590595 33.04446098257917 36.02689123894604 0 1 0
42 1 24.152199583638556 35.69220963310155 38.64118368103399 1 1 0
60 1 25.345534246189434 36.15256892816372 39.81982612889816 1 1 0
11 3 27.890807880890804 38.29670085827557 41.95138434212093 0 1 0
39 1 25.92572500230079 37.04093599135376 40.324300027746574 1 1 0
56 1 27.87414644098401 41.10673284518491 44.80382130372846 1 1 0
38 1 29.050977742957407 40.3621692571064 43.44263310366621 0 1 0
33 2 29.338911417387198 41.626233671391475 45.85297113505671 1 1 0
6 3 31.174111890570465 47.10185416073218 50.12517300924757 1 0 0
16 2 31.298956459840646 43.4113175318415 47.44305949688127 0 1 0
22 2 30.151523599430803 42.37794953902151 46.59779859743629 1 1 0
23 2 30.096022100506975 45.29544725791962 48.25180594697071 1 0 0
61 1 33.90318201756164 47.83527375940439 52.598702065505464 1 1 0
25 2 32.68550482199147 48.078920595937895 51.56839542815346 1 0 0
8 3 35.78169212846072 51.22458224380335 55.430065088087176 1 1 0
34 2 35.46662413046427 50.528827116734504 53.929628233759054 0 0 0
46 1 33.45287077693053 49.178243265813165 53.18350076861399 1 1 0
32 2 36.18215797642605 53.62243378644459 57.97201381617495 1 0 0
41 1 36.391073624466394 52.678531490392196 56.61166900700811 1 1 0
9 3 37.854149235415996 55.09312338369215 59.239168847673945 1 1 0
3 3 40.72008363013172 59.633870509505726 65.2508821404973 1 1 0
12 3 39.75699399313245 57.40124327927917 63.863073326583724 2 1 0
14 3 39.0406046346533 56.015233739623355 60.2332729325798 1 1 0
52 1 41.1683839962027 57.88796225073047 62.67151427618442 0 1 0
57 1 40.06355317619222 56.08432546929939 61.23611783109509 1 1 0

Velocities

10 -0.0006976015878456762 -0.0003054790895224603 0.0003703370944283868
13 -0.0005064999459500944 -0.001260133569009138 -0.002262902144887547
15 0.0005117843222527845 0.0008063455536494447 -7.69825679118978e-05
28 -0.0032520712778365776 -0.0011489357774129645 -0.002641849380952237
35 -0.0010972293343018621 0.0009157412422563044 0.0007854287546477175
36 -0.001130293063689744 -0.0013429129212960726 0.0008049388015816708
37 -0.0005608368843660111 0.0020220380459578823 -0.0001716464127594818
62 -0.0004180048216226249 -0.0013311537972829281 -0.00025973472218745477
21 -0.0014832853080819172 -0.0018723578270362275 0.002306450057438729
31 0.002254480908664529 0.003797977828870465 0.002699351836894772
48 0.000889766826433537 0.0015041289547888346 -0.0014559758338679137
19 0.0014236120405069362 0.001404278587986287 0.0010048062200759024
47 -0.0007088737635153702 0.0014992289832198881 0.00033753104005127145
49 -0.00022589639702579525 0.0015047655518594244 -0.0012411251204689237
50 -0.0013003890128495304 0.0016566906514117697 -0.00025749675221341695
59 -0.0002782151144440168 0.0014142578990055169 -0.0012860521738048544
1 0.002629691056659676 0.0019507686029220591 -0.0003589401590193029
4 -0.000340057630171043 -0.0011759215703880403 -0.0012352787702839365
20 -0.0006974515408029073 -0.0017545983767775478 -0.0023799273269205826
27 0.001141676058056122 -0.001497413944860474 0.0029086303770769722
30 -0.0017319345710660938 -0.0006994737985342704 -0.0014524811597929753
54 0.00036966222490060935 -0.0002721828595308207 0.001674473417148856
45 0.0008791043343379715 0.00032930382658252316 -0.0012452836443387913
24 0.0025768948191536383 -0.001606685345163799 0.0006658313549961792
29 -0.00010597157910511524 -0.001187661235300251 0.0011910279989351311
44 -0.00023543087935807872 0.0013115614071059166 -4.470033869248732e-05
53 -0.0007787219528201192 0.002175449641288894 -3.393657901605888e-05
55 0.0024443763447017284 -0.00023060588013855418 -0.002219863468082449
2 0.001428052365279975 -0.003064372275410711 -0.00019673096482241133
7 -0.0013492202663645413 -0.0009342356965261312 -0.0014872171773057446
17 0.0009566851543563916 0.000506847914917561 0.0008013713913046262
18 0.0008374182763918092 -0.001735840958042961 0.003274085318371233
40 -0.002734363573196794 0.00023332795291518128 -0.0008507737029918007
43 -0.0006412887629584293 -0.001536171735650631 -6.542716738104695e-05
5 -0.001599832963682142 0.0008923805225056279 0.0027709390590413296
26 -0.00026707886725151227 -0.002301029704105984 -0.0017317395039033213
51 -0.00012735097613324713 -9.810975983751079e-05 0.00030381225694806605
58 0.0002536897232276432 -0.0009881334632941118 0.0008371438694642762
42 -3.8974031620189326e-05 -0.000104355851797937 0.0009910820113858047
60 -0.0008282249750299977 0.004552507141287191 -0.0016263831382644473
11 0.00035323012897722886 0.0004080189162835695 0.0010632258114278734
39 0.001529524420563712 0.001132927630124232 0.0017463259637286255
56 -0.00019499601185385006 0.0008018781996347106 -0.0012331795470648028
38 -0.0014716919206856486 -0.0024390382744935305 -0.0014681797962649314
33 -0.0005365037351760264 0.0003592473925824414 0.00038078253624899993
6 -0.0002593216395760561 -0.0008333284880674059 -0.0006492722900328444
16 -0.001446890281623378 -0.0016178940280493891 0.00033271689825014006
22 -0.0006685612344194352 0.0017882187543057423 -0.0010893895601580927
23 -0.0018142962277753734 -0.001187026706603728 0.00037766786882331894
61 0.0009068665140157192 0.0004273457061116899 -0.0008155765598387749
25 0.002216007144270023 -0.0017225110094274524 0.0014714128582374898
8 0.00011480618820038324 -0.000554863059239188 -0.00026419587658145705
34 -0.00019458862642901664 0.0023189086277701472 -0.002363229729937902
46 0.0007432706544676541 -0.0014746172960252546 0.002129314322091934
32 -0.0008722191836680029 -0.0029332469780066375 0.0016706006392379182
41 7.392264503396494e-05 -0.0013734661034017553 0.0002756178409975727
9 0.00018620992097288338 0.00012916046669212133 0.0008851094460416829
3 0.0011464177987922253 -6.204106514240065e-05 0.0033405141481472646
12 -0.00016479580538911285 0.0004960433713678685 -0.0009537538787757008
14 0.001967044298813598 0.0007117836291002998 0.0008206234776917483
52 0.0002538438778095177 -0.00043346656613420584 -0.0005569688177047313
57 0.0005956457134683894 -0.0008699236870720346 -0.00036936953676156616
