LAMMPS data file via write_data, version 7 Feb 2024, timestep = 18, units = metal

43 atoms
3 atom types

0 2.2858575148342073 xlo xhi
0 2.2858575148342073 ylo yhi
0 43.43129278184994 zlo zhi
0 0 20.572717633507864 xy xz yz

Masses

1 50.9415
2 28.085
3 55.845

Atoms # atomic

1 3 2.203298576552113 4.490073414847169 6.872273227475195 0 0 0
8 3 0.7956170466591224 1.2625257479118868 1.7770807533810369 0 0 0
18 2 1.1580667730497787 3.884384194931469 3.5699719908118643 0 0 0
19 2 2.133457405907607 1.918642410443273 0.8899114097264265 0 0 0
22 2 0.07323989226550374 2.6598163477117787 2.988223743510497 1 0 0
31 1 1.0575824488093613 2.59632287422661 4.612450950802308 0 0 0
38 1 1.9763419703751348 3.8702759058068006 5.55434712600958 0 0 0
6 3 0.9570538923308967 4.676431717479766 9.85831094047106 0 1 0
9 3 0.7544894690925046 7.638580322666223 12.742156361565664 0 0 0
10 3 0.6481976047716731 4.304639533950048 8.20582458716993 0 1 0
12 2 1.319297554765581 6.773348739080706 11.619478418120128 0 0 0
14 2 2.2841114362850528 5.857771449644863 9.159187610433461 0 0 0
33 1 1.9206843621910892 8.739809179934277 13.860270208339054 0 0 0
2 3 1.937200074955537 8.766929502009836 16.85921638735216 0 1 0
21 2 2.2807443114382915 10.747751681352424 20.968582741765463 0 1 0
25 2 1.1325260412573188 10.049906691506449 17.619968526600218 0 0 0
28 1 1.9555627185450306 10.55725471693864 19.73114333144692 0 0 0
36 1 0.4964933315649129 8.856343740526448 18.55895182824692 1 1 0
39 1 1.6621239967758266 8.131370397866425 14.931982249332398 0 0 0
40 1 0.5734662352378199 8.947054275470858 15.7966897982208 1 0 0
41 1 1.2438391396832804 11.395919597041711 21.414205681829472 0 0 0
4 3 1.6525790705527739 12.504942675424404 25.166335070617826 0 1 0
5 3 1.4858882033818335 12.874491392898198 26.73044414459723 0 1 0
13 2 1.5656130991766541 12.781713987309994 23.502695930597316 0 0 0
15 2 0.07149421806274082 13.530177803471842 23.845178964323807 1 0 0
24 2 1.7828216779314134 13.827501802409298 28.783400035119858 0 1 0
35 1 1.1120134768404841 15.0779439971149 28.12129149777853 1 0 0
37 1 0.78783712457826 12.358362621474303 21.873102634731865 1 0 0
26 1 2.1418284085751615 14.899913497312028 29.607058588523447 0 1 0
7 3 0.6583602611611642 17.637766232600306 35.879051505992805 1 1 0
16 2 0.6558515353345359 15.756418944542371 30.945995326519437 1 1 0
20 2 1.1361084100345955 18.632804296682853 34.809404937424574 1 0 0
30 1 1.1540764957209872 17.292358310720715 32.91844740925504 1 0 0
32 1 2.27515717047143 16.24395432916063 31.846830663740775 0 1 0
43 1 0.8781804407357496 15.946470429959914 29.445123231746535 1 0 0
3 3 1.9481869841386334 0.379229677409874 0.08543276591600488 1 1 1
11 3 0.5862827463296889 20.99265499423429 41.477398314773964 1 1 0
17 2 0.39911585372795144 22.097292275341594 42.793347560191954 1 1 0
23 2 2.2719437798396847 19.271927261585212 36.66565070961744 0 1 0
27 1 2.267466329223243 18.810244934647027 37.787616194376746 0 1 0
29 1 1.715883108521103 19.688712127799636 40.90832219707378 1 1 0
34 1 0.128995112274197 20.8279893645325 39.91194364464636 1 1 0
42 1 1.3896971148226436 20.046792731830767 38.679627075137 1 1 0

Velocities

1 0.00271607989638532 0.0022667596277054962 -0.000590326710430798
8 0.00021371573282750894 -0.00022639739793175285 -0.0004960541256107576
18 0.0009327301960031895 -0.0014014956336338294 0.0030246112431639304
19 0.0015160055127461825 0.0017229903894917255 0.0007666300672050066
22 -0.0005657515858746036 0.0021050190561705405 -0.0013171394673987848
31 0.0017846279330864367 0.003140276139541655 0.0017970767809211013
38 -0.0013648837740599786 -0.0021011919842162533 -0.0016940438435104651
6 -0.00015854944740360116 -0.0005034764478034825 -0.0008792133824567612
9 0.00028476397216246793 0.00045422062152040526 0.0006475292202464707
10 -0.0005946473578529838 2.174497892673148e-05 0.0001353197345467703
12 -0.00016281743828495257 0.0010080298437615278 -0.0016286209622380205
14 0.0028283585474646157 0.0013107341023109813 0.0008610005285389269
33 -0.00027738412558304693 0.0005997019225576222 8.409069647828827e-05
2 0.0015204237307433416 -0.0027234126726360932 -0.00042892509731975184
21 -0.0013764194421609353 -0.001537332834363878 0.002061793489269761
25 0.002304455567022501 -0.0013882320500257454 0.0012309136391718887
28 -0.002283677148891206 -0.0005145614217700284 -0.0021490650738134652
36 -0.000716082618033258 -0.0006578740016783271 0.0003974623002262255
39 0.0016213905932542846 0.0014529903902006716 0.001504458051443476
40 -0.0026212690397281963 0.0005578694953919872 -0.0010797115925412907
41 0.00017303573408005533 -0.0010409249127227933 4.107205412336093e-05
4 -0.0002388834826145279 -0.0008443638827050944 -0.0014623023477545445
5 -0.0014923868490105986 0.0012136408798904654 0.002523969967626471
13 -0.0006422610970575968 -0.0014560547188785214 -0.0034654814508176504
15 0.0007864893255047705 0.0014434135454456007 -0.00039842678168956985
24 0.002663546512307688 -0.0012729830399781364 0.00042934283574537946
35 -0.0006916547485167205 0.0010108460795616129 0.0003830480496384257
37 -0.0004585635565150763 0.002337674245883953 -0.000403965432196143
26 -7.832988578568914e-05 -0.0013657418733728996 -0.00147666526490349
7 -0.0012430218619428912 -0.0006038812756580737 -0.0017129864442958884
16 -0.0013402056134152159 -0.0012841359188734503 9.788683575958557e-05
20 -0.0005944980578403345 -0.0014201596659443956 -0.0026012521119839122
30 -0.0011605823919549777 -0.00018249366123731866 -0.0012703459380270707
32 -0.0005254146206987472 -0.0018328313807835933 0.0010370233783985859
43 -0.0005386148942146454 -0.0012028204922997763 -0.0002982750141381637
3 0.0012401913212057073 0.0002639710131662922 0.0030907093477505077
11 0.0004509526467780553 0.0007316907354467069 0.0008247588084775339
17 0.0010514032871896 0.0008300277001338867 0.0005642080670883038
23 -0.0017057823778466033 -0.0008554137304520371 0.00014261401165944134
27 0.0009624747098630715 -0.0007720211627419527 0.0019516942111634356
29 4.0698060724355566e-05 -0.0005431722424412596 0.0006827095094582154
34 -2.4773249047568794e-05 0.0020475225355380466 -0.0019432176208574812
42 6.0701129268820366e-05 0.00022186689657495155 0.0007529741864010759
