LAMMPS data file via write_data, version 7 Feb 2024, timestep = 10, units = metal

65 atoms
3 atom types

0 2.2858575148342073 xlo xhi
0 2.2858575148342073 ylo yhi
0 80.00501301919725 zlo zhi
0 0 45.717150296684146 xy xz yz

Masses

1 50.9415
2 28.085
3 55.845

Atoms # atomic

2 3 1.2483035774295432 3.6257524093975144 3.0738614110390596 0 0 0
11 2 2.262842708320131 4.518846599362118 5.798412768064588 0 0 0
44 1 1.897714867665381 2.2177305903366826 1.7589383246284787 0 0 0
55 1 0.7042003759478203 4.2638238594397 4.6466781245630555 0 0 0
41 1 2.1106090724616444 6.381537704533413 7.442543752876141 0 0 0
33 1 0.47285134557327735 8.310102980690255 10.87418279075462 0 0 0
37 1 1.843483980952707 8.696950646369777 11.923576236562974 0 0 0
53 1 2.2773275754574507 7.130552239572884 9.411009494930594 0 0 0
32 2 1.4730619802297455 11.003475322821448 18.568376048304675 0 1 0
40 1 2.2163589428618775 12.690701020501008 19.597543200221637 0 0 0
45 1 0.1691295305006164 10.826418245883156 17.352123293177286 0 0 0
51 1 1.923762780661664 9.066461353376443 13.508424527897336 0 0 0
58 1 2.0157887216507433 10.031341188740184 14.403662837680042 0 0 0
39 1 0.3933749656990819 12.653971684949633 21.395644264010777 0 1 0
59 1 0.4743735345297054 11.668950928851821 20.24962583544276 0 1 0
23 2 1.242550710679222 14.661588513695643 22.290099468155173 0 0 0
29 2 0.3850464293679463 16.809145012564347 26.319599046134442 0 0 0
34 1 2.01078436996025 14.89458828898394 23.31334272652754 0 0 0
6 3 0.5114599455966549 18.043761040777714 30.668111742213316 0 1 0
17 2 1.5251919101364686 19.322535301038588 30.803652692783864 0 0 0
21 2 2.038556128519581 17.104525835228205 28.931857065755896 0 1 0
57 1 1.9601324684134465 19.66060336528522 33.33124438639376 0 1 0
63 1 1.2563592172757176 17.46015906099309 27.484210433549972 0 0 0
14 2 0.9676865455674611 20.58484474682271 32.3655193559637 0 0 0
10 2 1.3821728370094144 21.114311885902154 36.63191232326209 0 1 0
26 2 0.8376221708991223 23.588401269221208 39.140832582286514 0 0 0
28 2 0.021319083693700967 24.567433698118815 40.033387500969475 0 0 0
46 1 1.877839959066707 23.02245480206736 38.62983041591679 0 1 0
49 1 1.031708680273863 21.146889313248 34.171100008875285 0 0 0
61 1 0.36169437674546817 21.61269674791226 35.74441353467681 0 0 0
1 3 1.2883451303882156 23.443674225844568 40.76615201140732 0 1 0
8 3 0.4945433418904695 25.924514611898324 44.96469187691475 0 1 0
16 2 1.381661262994079 24.970648885676354 41.880184484518374 0 1 0
47 1 0.13397483922094422 24.748116424010895 42.95571566231293 0 1 0
56 1 1.618926239084283 26.008297872250882 43.75037240343513 0 1 0
64 1 1.547776209507728 27.02643983423401 45.071447193868465 0 0 0
36 1 0.9062645942442644 27.179971420757806 46.73969854969486 0 1 0
7 3 1.658905752145514 28.78814889256394 48.53548026251019 0 1 0
18 2 1.549184918248061 30.531213163120853 53.28693342499762 0 1 0
31 2 0.19937040014184385 30.473603864647412 52.36607280981163 0 1 0
54 1 0.3929863293624095 27.514344965596575 48.03438202000245 0 1 0
65 1 2.2278644300367207 29.17676585190941 50.42876979564441 0 1 0
19 2 0.1651234318601247 34.04248647480396 57.91513979408917 0 1 0
22 2 0.4117451544516373 32.40343465690811 54.740068198174384 0 1 0
25 2 0.2081389088815967 33.41696668523876 55.48107647295891 0 0 0
50 1 1.8589080419409822 31.706017225605088 53.95204819669518 0 1 0
12 2 2.1336976346438443 36.156060896423405 60.17122039212535 0 0 0
20 2 1.337605285991789 35.123091568412576 59.2727503756944 0 1 0
62 1 1.0075517705445625 34.57391140283034 57.07730253755735 0 0 0
15 2 0.2769388716267353 37.62168436333236 63.83927441738039 0 1 0
27 2 1.9985092283883155 37.002575888767964 62.36246709972948 0 1 0
42 1 0.49374146251290063 37.5609399785193 65.70585588475714 0 1 0
48 1 1.45613527909288 35.408567114860965 61.19796585751608 0 1 0
60 1 1.4885012308710963 37.07760628945712 64.62436146682734 0 1 0
5 3 0.4258537646749099 39.70705970524749 69.0482249500839 0 1 0
35 1 0.2500410709786983 39.570073615259915 67.56748783879924 0 1 0
3 3 1.8731281484469386 41.99561969119733 73.34461487220585 0 1 0
4 3 2.2514533070171954 41.37732076901302 71.6063918768144 0 1 0
9 2 0.746867877803881 42.41469874970751 70.78282968838391 0 1 0
13 2 1.0479508359032321 45.657603892942205 76.36469974528582 0 1 0
24 2 1.7135847064578678 45.36071739622158 77.6976555701024 0 1 0
30 2 1.1945818001571176 43.036066320049144 73.94909387668993 0 1 0
38 1 2.1701398796745615 45.70010396324518 79.8097632103066 0 1 0
43 1 0.7572126939459134 44.61261170004569 77.8952969121913 0 1 0
52 1 2.042983773855423 43.90400857781683 75.90385767569502 0 1 0

Velocities

2 0.0014014324117642637 -0.0030179349456455795 -0.00012048278000337676
11 0.00044871188381875074 0.0005761160722545819 0.0015035630610947678
44 -0.0002473990857683689 0.0013194560741342936 3.0208779866929396e-05
55 0.0024088047399014843 -0.0002091280014007767 -0.002125795791606934
41 5.922969245014228e-05 -0.0013419220583698048 0.00034770563810562207
33 -0.0003894567749742664 0.00029239100152558535 0.0003905587278562904
37 -0.0005699389564119609 0.0020236749258577607 -9.561916945835157e-05
53 -0.0007859049211231687 0.0021757352915295174 4.087773372839643e-05
32 -0.0008785786403511693 -0.0028879645830464586 0.0017304016067418153
40 -0.0027243215008852443 0.00025071956194302195 -0.0007687647936047948
45 0.0008573194446855763 0.00034585009242237057 -0.0011597999419775717
51 -0.00014027113647173764 -7.779888993697756e-05 0.0003756517212558764
58 0.00023741340527115204 -0.0009599833787438913 0.0009042858173197258
39 0.0015020107141971218 0.001142395680553529 0.0018054599522848895
59 -0.0002898064827980184 0.0014212480285023155 -0.0012002093874639663
23 -0.0018123579906593535 -0.0011571247958711021 0.0004488568223724544
29 -0.00011908004643108655 -0.0011577537357202337 0.0012550529807578046
34 -0.00013781804414551553 0.0017346398330676024 -0.001628947712125898
6 -0.0002710794192339288 -0.0008065419058878846 -0.000569038179252062
17 0.0009342169427896909 0.0005218303951943543 0.0008688284185604958
21 -0.0014842625727000528 -0.0018364196076768582 0.002360650544803955
57 0.0005763574909998806 -0.0008428147790723905 -0.0002916007735388436
63 -0.00034199949244195863 -0.0008970012766112525 -0.0015839950345232728
14 0.0027043337824431777 0.0010006868506411974 0.0011644787062411476
10 -0.0010200315914446864 -0.00042113736410861536 0.0005351151489461877
26 -0.0002787683222427517 -0.0022613157978232405 -0.0016419711607107237
28 -0.0032374693024497434 -0.0011193693667001388 -0.00254406490666866
46 0.0007226821704492041 -0.0014421823242595912 0.0021850749982994582
49 -0.00023794858193383346 0.0015109585015559484 -0.0011556780458526902
61 0.0008848370986447484 0.00044302843164884307 -0.0007338776623752277
1 0.002592487223639958 0.001953033214937107 -0.00028126325641834437
8 9.975313861096782e-05 -0.0005305291648483442 -0.00018735346947087298
16 -0.0014481881089675195 -0.001584197093200854 0.0004043017741838889
47 -0.0007166719457129771 0.0015054706983030188 0.00040907351364136754
56 -0.00020732036339203547 0.0008142620909963166 -0.0011478024560402284
64 0.001579996439477213 0.0017986584412069836 -0.002464150591021444
36 -0.0008264669836030036 -0.0009603452774330243 0.0007027243547936805
7 -0.0013513783586785691 -0.0009065603365941337 -0.001399602555410001
18 0.0008160005521922779 -0.0017011051617597244 0.0033197629984408825
31 0.002220581878514051 0.003783972458896433 0.0027500916957695007
54 0.0003523644360208778 -0.00025033877609009455 0.0017342402737215313
65 0.0006158431998523821 -0.002009622226317829 0.00027559430300948094
19 0.00139703119680243 0.0014113566139748665 0.0010704714194470011
22 -0.0006767144842039249 0.0017919150845431575 -0.0010052789528995796
25 0.002182446986102727 -0.0016878926216222828 0.0015329682461740035
50 -0.001302977204582743 0.0016615454643132393 -0.00018071335013121812
12 -0.0002753309852128035 0.0006991475167750863 -0.0013155617448084985
20 -0.0007053503284734603 -0.001719697367555416 -0.002284449828501881
62 -0.0004283649401614428 -0.0012999824336174407 -0.00018293160835270613
15 0.0006703224739075312 0.0011328556912523497 -9.010183385074432e-05
27 0.001117578470331562 -0.0014647781831351515 0.002957526937406179
42 -5.267260475311522e-05 -8.398996712037108e-05 0.0010568680918271504
48 0.0008678880229180467 0.0015103275115507238 -0.0013686363817190011
60 -0.0008349719270613408 0.004531855973884907 -0.00153754276043024
5 -0.0015997836914949997 0.000903967281012766 0.0028210483868432315
35 -0.000802133122107026 0.0007019529145955097 0.0006883655758942608
3 0.0011222784464233091 -4.2047883679547104e-05 0.003385606731602611
4 -0.0003511042975767687 -0.0011461174722711578 -0.0011498831895704377
9 0.00021526837729308484 0.000186356682808458 0.0012546104977960966
13 -0.0007529295567869638 -0.0017554542822506773 -0.003145353273958035
24 0.0025401560086236565 -0.001573087134956798 0.0007344822015111558
30 -0.0017307217648608914 -0.0006738661912955763 -0.0013651724882851825
38 -0.0014727712983733166 -0.0023981088064200583 -0.0013807328531801758
43 -0.0006496822251743184 -0.0015031946002740542 9.664510427596373e-06
52 0.00023756620207923703 -0.0004102019164876013 -0.00047754770407186904
