LAMMPS data file via write_data, version 7 Feb 2024, timestep = 28, units = metal

52 atoms
3 atom types

0 2.2858575148342073 xlo xhi
0 2.2858575148342073 ylo yhi
0 75.43329798952884 zlo zhi
0 38.85957775218152 6.857572544502622 xy xz yz

Masses

1 50.9415
2 28.085
3 55.845

Atoms # atomic

2 3 1.5920908975363128 0.5111898243580798 1.6604885459694705 0 0 0
7 3 0.28514484881478164 0.14170290175632633 0.31880800942681853 0 0 0
27 1 3.346191779235705 0.6177643065845329 3.1755992222465665 0 0 0
34 1 4.482608230796947 2.097960523813292 6.542319399317194 0 0 0
41 1 3.443928326126185 2.5347521756558504 4.987840091806464 0 0 0
16 2 6.390371532279181 1.0159243329454555 8.912975277336923 0 1 0
23 2 6.472327413083689 3.245370186130776 11.129922285835077 0 0 0
37 1 5.311234914512543 1.967037014784613 9.157673447336036 0 0 0
43 1 4.345816943620364 1.3210631129644121 7.507497536390532 0 0 0
10 3 7.051775227960329 2.0407245959028395 12.777819029901938 0 0 0
9 3 8.333983566038974 1.8569710847733583 14.463529607119984 0 0 0
13 2 9.084161496825656 2.342916433351408 17.369939916995634 1 0 0
28 1 10.905582275189325 3.697134930413493 18.981123809847823 0 0 0
44 1 9.375990824944537 2.6614673702002642 15.626159424227199 0 0 0
1 3 13.740355750105092 2.7580838259535883 22.606391676231773 0 1 0
15 2 11.407448155246508 3.244514192176127 20.754591589420254 1 0 0
21 2 13.400063494055386 3.68314192903775 25.71735070985543 1 0 0
49 1 12.604947235335745 2.2660938523401697 24.29212483869715 1 1 0
4 3 17.434095865421167 4.36150060956536 29.688364028208657 0 0 0
12 2 17.944591985584825 3.890200363327397 33.138325359313455 0 1 0
14 2 14.677793664515972 3.9333704248827344 27.327232962154916 1 0 0
35 1 17.101394431626257 3.0388141039690306 31.717949477593944 1 1 0
45 1 16.041319345491715 3.092928191863344 28.39708778313702 0 1 0
17 2 19.81144681337653 4.038731521717951 35.112983533730905 0 1 0
38 1 19.148238716700654 4.4740440348321036 36.490826770035056 1 0 0
25 1 22.025831233988125 3.6998979490356647 40.02380421538687 0 1 0
36 1 21.05162099813641 5.54961402433125 37.6641877457098 0 0 0
6 3 26.62807199568241 4.873527501191728 47.48991397518787 0 1 0
30 1 22.795487980125756 5.550520768271867 43.61674931212005 1 0 0
46 1 26.18269401783147 6.004286951051668 46.523678299608726 0 0 0
51 1 23.80582841525204 4.175823873007057 45.067629367162546 1 1 0
3 3 29.199046659526747 5.087140441869902 52.285971957351286 0 1 0
33 1 26.573016875539476 4.825192908074698 49.15256477119052 1 1 0
18 2 29.48314941707809 6.511072410668451 54.96877664118449 1 1 0
22 2 27.773467116125712 6.631234028023487 51.04316741521265 1 0 0
24 1 25.266637727568 6.471154258624601 48.87742133145932 1 0 0
32 1 28.266325066312767 6.7071022423143605 53.69966924153809 1 0 0
5 3 29.940758545074175 5.721034741447688 55.970554899090736 1 1 0
20 2 30.23529452052803 5.533594795618116 58.48677570679845 1 1 0
26 1 31.588036484647574 6.781115540455984 59.95865290656086 1 1 0
47 1 30.966796543685508 5.702836379427931 56.89136579215677 1 1 0
52 1 32.271299570153 7.753452136840982 61.722837723854 1 0 0
50 1 33.207477801231946 6.727691115223628 62.553765398145586 1 1 0
19 2 35.06603137543339 8.034126381324093 64.088669155645 1 0 0
29 1 35.620658392040234 6.249505225363871 66.85705383323001 1 1 0
40 1 35.858422223381204 8.047532864205053 65.49451637556133 1 1 0
48 1 36.623377872493585 7.295592631959697 68.18710159683292 1 1 0
8 3 38.96726756561475 6.667383947811605 73.1137793168471 1 1 0
11 3 40.0976926560153 7.026695317472032 75.05620572773935 1 1 0
31 1 37.80635015895383 8.153997716686014 72.09944154204176 1 1 0
39 1 36.7854901093957 6.945099074685771 70.36502303642236 1 1 0
42 1 35.96606336329565 7.824053964694484 68.64619883315984 1 1 0

Velocities

2 0.0015114793783113515 -0.002968190658043679 -0.00035645850802938536
7 -0.0013177787916026965 -0.0007981817614834078 -0.001671100296605956
27 0.000940242575278594 -0.0009703259681504444 0.0020808562145065465
34 -7.051709405282268e-05 0.0019163663064870416 -0.0019068145219845085
41 0.0001320027902095648 -0.0012456337699640043 0.00012473181613551623
16 -0.0014172770135194505 -0.001494636944835952 0.00018289966483193973
23 -0.0017915601368187351 -0.0010557045636720302 0.0002286920365604675
37 -0.0005146382935727885 0.002213428097456739 -0.00033090441836097073
43 -0.0005965960863364581 -0.0014113849584091163 -0.0002226969401447998
10 -0.0006539629858146851 -0.0001576559639857322 0.0002212240432808962
9 0.0002463918815820828 0.0002851192613833991 0.0007456320055576812
13 -0.0007027106655234288 -0.0016706500607675575 -0.003465331682256485
28 -0.002383217706142986 -0.0007067347190603169 -0.002117564315493413
44 -0.000183141274620554 0.0014896526163961218 -0.0002015821425785297
1 0.002735610580316443 0.002140824618894057 -0.0005217039659968954
15 0.0007600660276385911 0.001297870215859778 -0.00032523386264693985
21 -0.0014543532892796328 -0.00175386384752738 0.002193577551560686
49 -0.0001734283239627207 0.001686473194533402 -0.0014204018399894553
4 -0.00028972644964309383 -0.0010443915593208372 -0.001414446056665706
12 -0.00021184886162686016 0.0008521176747939382 -0.0015847256163869265
14 0.00285056319299453 0.0011620309579920764 0.0009641872196089852
35 -0.0007532806468186893 0.000855000980391444 0.00047485210863781294
45 0.0009522560295826239 0.0004890089442585972 -0.0014246382039313844
17 0.0010312890227302124 0.0006698763379449015 0.000660326525354522
38 -0.0014425428945657192 -0.0023311515316499732 -0.0016517065701025574
25 0.0017528738945537987 -0.0011405909143028263 0.0009937351366497067
36 -0.0007782902759520337 -0.0008534603461651642 0.0004896096404476138
6 -0.00020747922681221403 -0.0006953857519443592 -0.0008174705912461512
30 -0.001233375992211968 -0.00036675863017377017 -0.0012179181272119173
46 0.000813879788034086 -0.0013486783306116664 0.0020131261544946025
51 -7.303831039650943e-05 5.3594945815419544e-05 0.00015345398073865572
3 0.0012245731203204518 9.033878146969954e-05 0.0032469974583847054
33 -0.00032914400103397956 0.00043406525859015707 0.00016877496490001878
18 0.0009097896837612367 -0.0016147916287868023 0.0031793252006379466
22 -0.0006243790493108596 0.0019752321300703416 -0.001265826063458038
24 0.0020258517792246735 -0.0010529795963727042 0.0003843878244819664
32 -0.0005830814429547327 -0.002056399811639857 0.0011444021250064512
5 -0.001573082506942363 0.0010626254211132048 0.002666760950138743
20 -0.0006538101301617009 -0.0016339001525941697 -0.002580520371316956
26 -0.0001253492038093799 -0.0015781863782289096 -0.001429151032509993
47 -0.0006654461562974129 0.0016808329913073244 0.00018780391869120547
52 0.00031529182419605465 -0.0002880391354916736 -0.0007234393642718251
50 -0.0012680335050289824 0.001841242058139334 -0.00041836172144400134
19 0.001506955938661225 0.001584105295801189 0.0008675692874759289
29 -3.486558493361634e-06 -0.0007360269180260803 0.0007816501276208389
40 -0.002728849484736766 0.0003912365752106303 -0.0010227437474957686
48 0.0009631181043135299 0.0016858246815129702 -0.0016392741715243015
8 0.0001736515996208794 -0.00041170795215833615 -0.00042518624134658104
11 0.00041653840686477694 0.0005691974385730106 0.0009270823882901382
31 0.0017819757108547434 0.0030351442806265403 0.0019225565074734113
39 0.0016148508075899696 0.0013076751370556187 0.0016229689443111206
42 1.6992891238726326e-05 4.723193827063767e-05 0.0008535881863338809
