LAMMPS data file via write_data, version 7 Feb 2024, timestep = 21, units = metal

21 atoms
3 atom types

0 2.2858575148342073 xlo xhi
0 2.2858575148342073 ylo yhi
0 38.85957775218152 zlo zhi
0 11.429287574171036 9.14343005933683 xy xz yz

Masses

1 50.9415
2 28.085
3 55.845

Atoms # atomic

9 2 1.9296422470794061 1.0999594845238911 2.273442726920188 0 0 0
14 1 2.318802047328722 0.2436543060373273 0.4417390235615361 0 0 0
15 1 3.145024269003344 3.2223342517405498 6.098456806590633 0 0 0
21 1 1.6929834970775355 2.010818035252031 4.156160458961094 0 0 0
3 3 2.3844568923978056 3.2377144595500145 7.594112919754968 1 0 0
1 3 6.50442900083608 4.354558931483194 16.30984385663894 0 1 0
8 2 5.507392983764489 5.033522152240136 18.118096219420433 1 1 0
10 2 6.337720913952815 3.6607139134990914 14.674297033570891 0 1 0
13 1 4.186532356107639 4.648922833104551 12.856491444456456 1 0 0
4 3 7.838940955875117 5.445700600565541 19.61725253991641 0 1 0
7 2 6.73457911303186 7.358000628846389 21.754691345534347 1 0 0
5 2 7.433269649327451 6.503602712061835 23.715048298373137 1 1 0
17 1 8.281216869471645 7.072257718117482 25.93473994479814 1 1 0
18 1 8.170507454689206 6.471853506403403 20.203967566465106 0 0 0
6 2 11.054921772789106 9.388507302905747 31.362844761845704 1 1 0
12 1 8.897946283855841 6.9624248390347905 27.02721488260833 1 1 0
19 1 10.402651843533098 8.686020249536712 29.939475532000575 1 1 0
2 3 11.449516414635761 9.291034916963188 36.38805900653477 1 1 0
11 2 11.837562904304255 8.725010048481549 33.18089883665616 0 1 0
16 1 12.90042635659047 9.699375736184695 38.36546780185822 1 1 0
20 1 10.370816761107504 9.749782890090604 34.69601270837791 1 1 0

Velocities

9 -8.368178428148631e-06 0.0005179055694907102 0.0008982908942762343
14 0.0017942638437635392 0.0010862609870351187 0.0005643966146563816
15 0.0002889281437287152 0.0011840768022025464 -0.00036409619541011615
21 -0.0013056420417018695 -0.0010134311919529236 0.0014496621804910316
3 0.0008956782960275595 0.0002902472996315045 0.0030223242405637827
1 0.0023610832644984413 0.002278809604333601 -0.0006325644952765178
8 -0.0001078428106977294 -0.00043502764651567427 -0.0007028400255548871
10 -0.001239631887224184 -8.760353130115626e-05 0.0001811464483068585
13 -0.000764395445457188 -0.0009535101903746615 -0.002625233607024321
4 -0.000572890268502791 -0.0008102148154993284 -0.0014983462709530972
7 -0.002147420960831528 -0.0009635427832172362 -0.0024066668343721963
5 -0.002496556852468797 0.0015811697917507692 0.0035254953833456543
17 0.0004842317604701765 0.0007318678159886781 0.0003455910795526164
18 0.000396741906137133 -0.0009132873700800062 0.0021594842993498953
6 -0.0006290512495961998 -0.0008229659945112057 -0.0012393012599529632
12 -0.00041093321195868584 0.0008630970732807908 -0.0012710373442547049
19 0.0008267523827138811 0.0013901903964129284 0.0004948234887446475
2 0.001173920144476749 -0.0026759162506018942 -0.00047230935830362106
11 0.00022431256706951315 0.0009063914462270877 0.001146430021742262
16 -0.001278943970807028 -0.0008267657816870272 1.8031475666755743e-06
20 -0.0007291829023116005 -0.0009270471318911627 -0.0019880942335657095
