LAMMPS data file via write_data, version 7 Feb 2024, timestep = 32, units = metal

7 atoms
2 atom types

0 2.2858575148342073 xlo xhi
0 2.2858575148342073 ylo yhi
0 16.001002603839453 zlo zhi

Masses

1 55.845
2 51.9961

Atoms # atomic

5 1 0.9967525659872088 0.8583670672481952 6.617407173028433 0 0 0
6 1 1.85824553347329 0.6954633800165438 0.16240389710948372 0 0 0
7 1 0.700673963012721 0.6794374051400812 1.8918675251413002 0 0 0
1 2 0.057096342488367736 1.4982242926763512 14.273349264891483 0 0 0
2 2 2.048654732941914 0.9691997752979679 12.044565206873314 0 0 0
3 1 1.0257486345856073 0.46047007399838913 10.329908884617186 0 0 0
4 1 2.1300852325078727 0.7032047973137089 8.563201985635255 0 0 0

Velocities

5 -0.0013011481242588207 0.0009705153146779527 0.0017527742395665132
6 -0.00034259675629132945 -0.000263477045589269 -0.0006928957137098661
7 -0.0011219440104823094 -0.0003356321560807021 -0.0012920799231475768
1 0.0017896066749257902 0.0017771663258433956 -0.0004982656012025626
2 0.0008991238030565431 -0.0019393393794106145 -0.00037805932777922963
3 0.0006625968869271088 0.0002880428118307317 0.0021600568719506714
4 -0.00040032815537566175 -0.0005084530199128212 -0.0011119278421083919
