LAMMPS data file via write_data, version 7 Feb 2024, timestep = 30, units = metal

7 atoms
2 atom types

0 2.2858575148342073 xlo xhi
0 2.2858575148342073 ylo yhi
0 16.001002603839453 zlo zhi
0 9.14343005933683 4.571715029668415 xy xz yz

Masses

1 55.845
2 51.9961

Atoms # atomic

1 2 3.448113275414075 2.1091168532184645 2.12075094881428 0 0 0
5 1 3.9915731723254346 3.8308842755110235 6.546116253268899 1 0 0
6 1 4.185450600675999 1.2605572722661356 3.5896016802485335 0 1 0
7 1 6.883876748605971 2.523456659068669 8.785240287542962 0 1 0
2 2 2.057313132279033 1.306192202757531 0.47534789858447246 1 1 1
3 2 9.832881797507731 5.6640594020168065 14.16355560812615 1 1 0
4 2 8.628280479209026 5.638323059683948 11.865909546517024 1 0 0

Velocities

1 0.0017893714257487744 0.0017790378886702964 -0.0004939329327603956
5 -0.0013004002927094408 0.0009726434501266005 0.0017563909166002408
6 -0.00034215381252384567 -0.0002609564124548719 -0.0006885011389940496
7 -0.0011212531786374646 -0.0003330885724688185 -0.001287494765067459
2 0.0008991717910191255 -0.0019362857023864507 -0.00037376489351553116
3 0.000690530882555388 0.000287905450820804 0.00224670191577086
4 -0.0004106818974511835 -0.0005372810432688913 -0.0011431433129217969
