LAMMPS data file via write_data, version 7 Feb 2024, timestep = 30, units = metal

25 atoms
3 atom types

0 4.571715029668415 xlo xhi
0 4.571715029668415 ylo yhi
0 13.715145089005244 zlo zhi
0 0 2.2858575148342073 xy xz yz

Masses

1 50.9415
2 28.085
3 55.845

Atoms # atomic

3 2 4.297099477010817 4.089124538770637 0.34969476664787846 0 0 0
4 2 3.3007715955619696 5.492478816830303 5.796510043818734 0 0 0
5 2 3.1948389054889983 0.9420614737291941 3.699799510473296 0 0 0
6 2 1.6184475187393916 1.6611995543050746 1.5093403361439794 0 0 0
9 2 0.14441726918550485 2.824378340545937 0.6972783997458581 1 0 0
10 2 0.5449312225589438 2.5513026318661316 3.2090969824564164 1 0 0
12 1 2.6964190584274026 3.393420538338046 0.736263311117835 0 0 0
13 1 1.1879002465820467 2.7431385447834593 4.998800585623527 1 0 0
16 1 2.9655987914795654 1.2138045149162027 1.9433680961875779 0 0 0
24 1 2.91449986867889 3.7598769764135316 6.228035368387757 0 0 0
25 1 4.561251282706008 0.7725165387019273 1.6348918744649128 0 0 0
1 3 1.670145122450964 5.217740359582038 8.440963944792484 1 0 0
2 2 0.002655014938372516 3.896253364074175 11.515917241566505 1 0 0
7 2 3.4675475604500323 2.3356550521829273 10.322405014728385 0 0 0
8 2 4.496770182666344 2.122705391465952 8.209487526930102 0 0 0
11 2 1.3066608807458553 6.109418714693875 12.931988873075747 1 0 0
14 1 2.4659784161713985 5.500125043093677 10.487574993203456 1 0 0
15 1 3.8986185265484994 1.6852927608193644 6.685795470938278 0 0 0
17 1 2.1645827211813082 3.629510667263978 12.637653886836993 1 0 0
18 1 2.1548124391936647 0.45893887766471175 0.20659159991398998 1 0 1
19 1 4.1318793664016695 3.853671065286944 7.635866927379272 0 0 0
20 1 1.1566608685221542 2.3814560599310735 7.79845401507202 1 0 0
21 1 4.00034542765013 4.490090609013524 13.082607170673532 0 0 0
22 1 2.6498535588255745 3.3715801236855234 9.076566166207686 1 0 0
23 1 0.5579864762861123 6.118579621259934 10.657838292238559 1 0 0

Velocities

3 0.0013326052255073224 0.0002466818756280558 0.0044111782870416725
4 -0.0007785581248138249 -0.001335304380916993 -0.002087581207952781
5 -0.002567751179691393 0.0016021969667877837 0.0036022405609636822
6 -0.0006638930176247434 -0.0008487373342128855 -0.0012553068359373327
9 -3.1127831120237216e-05 0.0005182354167557643 0.0009238953382028249
10 -0.0012863591182671202 -9.906042534237454e-05 0.0001927910755224917
12 -0.0004415291298744846 0.0008701463620058923 -0.0012876606896751563
13 -0.0008018718015073363 -0.0009818226820815974 -0.0026682175158224534
16 -0.0013264364444512656 -0.0008526110874255541 9.956707368007154e-06
24 0.0016827236750756268 -0.0008442287507234206 0.000259074071584222
25 0.001412836299957394 -0.0009308481801886253 0.0008615226795166296
1 0.0023844469667799214 0.002313416922072214 -0.0006367594324498546
2 0.0017325960786135888 -0.004017372203667739 -0.0006125860471003732
7 -0.002211819065784167 -0.0009920505677386185 -0.0024453961580550455
8 -0.00013253882034228127 -0.00045324744166645275 -0.0007084029347280981
11 0.00020608223978400378 0.000914283496148128 0.0011768647014152374
14 0.001806593931734621 0.0010976543480737126 0.0005835015270443434
15 0.0002719556127099203 0.0011973742299306958 -0.0003630651724858726
17 0.0004710609777714324 0.0007363626174145902 0.00036043675911438995
18 0.0003818680602167157 -0.000940816890933487 0.0022096389282090317
19 0.0008202490505310255 0.001407499997717803 0.0005125741020214683
20 -0.0007659738167453467 -0.0009548444980217696 -0.0020186756913335
21 -0.0013536542156356692 -0.0010429100960944405 0.0014859995278633696
22 -0.0007443683990521231 0.0016946270206171933 -0.0010535558642992312
23 -0.001601198464079037 -0.0005303899130762364 4.357298273935246e-05
