ats_1.data (written by ASE) 

9 	 atoms 
1  atom types
0.0      6.8575725445026219  xlo xhi
0.0      6.8575725445026219  ylo yhi
0.0      2.2858575148342073  zlo zhi
     2.2858575148342073                       0                       0  xy xz yz


Atoms 

     1   1      5.3889852491708439      3.5648642975944682      1.8351598295782428
     2   1      4.9631827963746282      1.9599834274298902     0.85754899277390506
     3   1      3.7614634480663702      3.4805618352096421       1.819347109237615
     4   1      3.0131018003053351      5.5325538048647065     0.86187114591437686
     5   1        2.37872400066817      1.9669135396473159      1.6522397125255772
     6   1      7.8641845083491155      3.3421052550878021      1.2487079616198908
     7   1      2.2574389227706755      6.6234030633026864      2.2532227141334351
     8   1      5.4426509780275634     0.62703096054064911      1.7945034181805086
     9   1      2.4251772287231277       3.060957559854514     0.62718988610474902
