ats_10.data (written by ASE) 

6 	 atoms 
1  atom types
0.0      6.8575725445026219  xlo xhi
0.0      4.5717150296684146  ylo yhi
0.0      2.2858575148342073  zlo zhi


Atoms 

     1   1      3.6288375087111913     0.20435066943633495     0.42461399851666443
     2   1       5.303079863808021       2.189320931343222       1.206006643898804
     3   1      1.4301542132341436      1.1468938505834738     0.37717070617901388
     4   1      3.6423312880159102      3.0085319042742245      1.1715197238992106
     5   1      4.4392614778158999      4.3518393701084541      1.5676563473534715
     6   1      6.3971808773720786      4.3077549433472049      2.1208392389121835
