ats_8.data (written by ASE) 

8 	 atoms 
1  atom types
0.0      4.5717150296684146  xlo xhi
0.0      4.5717150296684146  ylo yhi
0.0      4.5717150296684146  zlo zhi
     2.2858575148342073      2.2858575148342073                       0  xy xz yz


Atoms 

     1   1      3.0223894595666163       1.677320975850481      0.5143425983754033
     2   1      4.4862263194105081      3.5868700009375991      1.1528028446493015
     3   1      2.1143025985456516      1.6996044006883821      2.0082275773334604
     4   1      5.3935286945263421      3.1391208670376645      2.4207209407263921
     5   1      7.3690504821371796      3.0225480679295438      3.7469601485206065
     6   1      3.1475086689980256     0.04253535197725089      1.1698900791608318
     7   1      3.9378145267360818      1.8009988941944366      2.8577879442973995
     8   1      6.5475437456830408      1.4367670870860887      4.0724187418482858
