ats_4.data (written by ASE) 

6 	 atoms 
1  atom types
0.0      6.8575725445026219  xlo xhi
0.0      4.5717150296684146  ylo yhi
0.0      2.2858575148342073  zlo zhi


Atoms 

     1   1      3.5223138405096686      4.1521303135829237      1.6288444805555673
     2   1       3.619782593340636      2.3324717308686371     0.45385690887119162
     3   1     0.16511223126236141      1.0065715389068854     0.58564283726507382
     4   1     0.01841892835976644      3.7757502059736505      1.1353388426393516
     5   1      1.7140928882467845      2.8158461166495048      1.5121987788047067
     6   1      6.6817610682860877      2.5495949620918941     0.21551180364644351
