ats_9.data (written by ASE) 

9 	 atoms 
1  atom types
0.0      6.8575725445026219  xlo xhi
0.0      6.8575725445026219  ylo yhi
0.0      2.2858575148342073  zlo zhi
     2.2858575148342073                       0                       0  xy xz yz


Atoms 

     1   1      2.5476264015966437      6.1918554754411979    0.055823462523042183
     2   1      4.0280423645370815     0.73295234286098498      2.2395191106776999
     3   1      6.5194279624775566      1.1806636066881999    0.021975744789320597
     4   1     0.83101835174838523     0.65238857676814188      1.7582549358080448
     5   1      4.0203475145712719      3.2859983508505786      2.1720544192060727
     6   1      6.2008309706227411      4.4561063324631576     0.46339826309083548
     7   1      4.3879683278447592      5.5818007443217681      1.4831413075526167
     8   1      2.4233382790295814      2.4804129618441655     0.32025641927357484
     9   1      4.9553645756809646      6.7957841612497267      1.9811473825885597
