mass 1 51.996100
pair_style hybrid/overlay soft 1.650 mliap model mliappy LATER descriptor ace coupling_coefficients.yace
Loading python model deferred.
pair_coeff * * soft 100.0
pair_coeff * * mliap   Cr

thermo 10
velocity all create 0.0001 4928459 dist gaussian
Loading python model complete.
min_style  fire
min_modify integrator eulerexplicit tmax 10.0 tmin 0.0 delaystep 5 dtgrow 1.1 dtshrink 0.5 alpha0 0.1 alphashrink 0.99 vdfmax 100000 halfstepback no initialdelay no
minimize 1e-12 1e-12 10000 100000
Neighbor list info ...
  update: every = 1 steps, delay = 0 steps, check = yes
  max neighbors/atom: 2000, page size: 100000
  master list distance cutoff = 13.209389
  ghost atom cutoff = 13.209389
  binsize = 6.6046944, bins = 2 2 1
  2 neighbor lists, perpetual/occasional/extra = 2 0 0
  (1) pair soft, perpetual, half/full trim from (2)
      attributes: half, newton on, cut 3.65
      pair build: halffull/trim/newton/tri
      stencil: none
      bin: none
  (2) pair mliap, perpetual
      attributes: full, newton on
      pair build: full/bin/atomonly
      stencil: full/bin/3d
      bin: standard
  Parameters for fire:
    dmax  delaystep dtgrow dtshrink alpha0 alphashrink tmax tmin   integrator   halfstepback   abcfire  
     0.1      5      1.1     0.5     0.1      0.99      10   0   eulerexplicit       no          no     
Per MPI rank memory allocation (min/avg/max) = 4.036 | 4.036 | 4.036 Mbytes
   Step          Temp          E_pair         E_mol          TotEng         Press     
         0   0              7.8104234      0              7.8104234      1002808.7    
        10   1.0647084     -4.6603763      0             -4.6592753      32637.723    
        20   104.25168     -4.7534705      0             -4.6456658     -25502.024    
        30   336.62492     -5.1448637      0             -4.7967662      55386.466    
        40   54.795945     -6.2358016      0             -6.1791382      10837.227    
        50   1113.9326     -7.0853141      0             -5.9334174      1375.6313    
        60   39.212289     -7.98982        0             -7.9492713     -133090.13    
        70   639.22966     -8.5355918      0             -7.8745765     -95237.073    
        80   2.6844211     -9.681427       0             -9.6786511     -219904.87    
        90   300.72825     -9.9678959      0             -9.6569184     -159635.58    
       100   188.72365     -10.741345      0             -10.54619       72761.208    
       110   1268.3523     -11.902266      0             -10.590687     -127225.94    
       120   300.04454     -16.096353      0             -15.786082     -300191.79    
       130   5293.3458     -20.911339      0             -15.43759       12958.289    
       140   91.913296     -24.979124      0             -24.884078     -345560.23    
       150   1602.932      -26.59429       0             -24.936729     -91722.496    
       160   13632.359     -24.665221      0             -10.568256      1002080.8    
       170   1688.3648     -36.290119      0             -34.544213     -216225.38    
       180   378.52728     -36.543739      0             -36.152311     -270398.99    
       190   777.3998      -37.083383      0             -36.279489     -442375.5     
       200   7.6930482     -39.771792      0             -39.763837     -527273.38    
       210   434.39356     -40.21198       0             -39.762782     -489614.95    
       220   4272.6699     -43.879766      0             -39.461479     -490657.92    
       230   413.95543     -47.654525      0             -47.226461     -529080.83    
       240   3649.6081     -50.803619      0             -47.029628     -618542.83    
       250   28.108396     -58.351984      0             -58.322918     -658145.12    
       260   1175.695      -59.33315       0             -58.117386     -545241.4     
       270   771.61727     -61.33816       0             -60.540245     -532004.73    
       280   266.822       -61.938984      0             -61.663068     -491064.79    
       290   824.22021     -62.59396       0             -61.741649     -383844.43    
       300   456.2399      -62.895315      0             -62.423526     -319526.7     
       310   136.27811     -63.078378      0             -62.937456     -349780.25    
       320   657.18554     -63.509483      0             -62.8299       -479242.06    
       330   19.545692     -63.611736      0             -63.591524     -495691       
       340   170.06456     -64.047093      0             -63.871233     -495450.21    
       350   69.545346     -62.696255      0             -62.62434      -489045.04    
       360   158.99646     -62.990852      0             -62.826437     -514494.59    
       370   35.368547     -63.022552      0             -62.985978     -508654.66    
       380   194.07327     -63.196683      0             -62.995995     -558215.13    
       390   28.424374     -66.349373      0             -66.319979     -749744.82    
       400   149.90005     -66.541601      0             -66.386592     -692335.05    
       410   1347.6303     -66.793584      0             -65.400025     -560789.68    
       420   133.34821     -67.526686      0             -67.388794     -713974.96    
       430   789.38442     -68.220779      0             -67.404491     -761167.26    
       440   607.32881     -69.541243      0             -68.913216     -690095.02    
       450   368.64099     -74.294146      0             -73.912942     -827538.93    
       460   943.58152     -76.598637      0             -75.622897     -949573.51    
       470   4212.4611     -79.459959      0             -75.103933     -941350.78    
       480   106.14516     -80.543679      0             -80.433917     -966947.41    
       490   1375.5485     -81.787563      0             -80.365134     -1073802.4    
       500   1014.2141     -78.907081      0             -77.858302     -937810.29    
       510   188.44172     -79.090403      0             -78.895539     -961458.78    
       520   463.25131     -79.397325      0             -78.918286     -949308.7     
       530   6.5364994     -79.206481      0             -79.199722     -878713.45    
       540   16.089452     -79.221438      0             -79.2048       -827271.58    
       550   5.098514      -79.226409      0             -79.221137     -838170.11    
       560   0.90323745    -79.233111      0             -79.232177     -819401.09    
       570   0.48998209    -79.234933      0             -79.234426     -823060.07    
       580   1.3636149     -79.236071      0             -79.234661     -818045.12    
       590   0.0070326926  -79.237163      0             -79.237155     -814392.22    
       600   0.16683872    -79.237317      0             -79.237145     -813865.36    
       610   0.69157182    -79.237901      0             -79.237186     -809737.55    
       620   0.15260474    -79.238119      0             -79.237961     -808473.44    
       630   0.0022568299  -79.238171      0             -79.238169     -808961.44    
       640   0.022344055   -79.238196      0             -79.238172     -809030.13    
       650   0.086629294   -79.238272      0             -79.238183     -808835.08    
       660   0.00040468391 -79.23827       0             -79.238269     -808804.23    
       670   8.6762795e-05 -79.238271      0             -79.23827      -808862       
       680   0.0005126884  -79.238277      0             -79.238276     -808842.46    
       690   0.00015163342 -79.238269      0             -79.238269     -808826.08    
       700   3.282545e-05  -79.23828       0             -79.23828      -808842.25    
       710   1.2967086e-05 -79.238274      0             -79.238274     -808832.35    
       720   7.438674e-06  -79.238271      0             -79.238271     -808842.21    
       730   5.8589341e-05 -79.238269      0             -79.238269     -808841.97    
       740   4.1511598e-06 -79.238269      0             -79.238269     -808848.28    
       750   7.2065156e-06 -79.238274      0             -79.238274     -808843.84    
       760   1.7075797e-06 -79.238283      0             -79.238283     -808841.45    
       770   4.8224197e-07 -79.238274      0             -79.238274     -808844.12    
       780   5.2287025e-06 -79.238274      0             -79.238274     -808843.31    
       790   2.6289556e-05 -79.238271      0             -79.238271     -808844.64    
       800   3.8296049e-06 -79.238276      0             -79.238276     -808843.43    
       810   2.4769677e-08 -79.238274      0             -79.238274     -808842.75    
       820   2.8388714e-09 -79.238274      0             -79.238274     -808842.75    
       830   1.7918779e-08 -79.238274      0             -79.238274     -808842.66    
       840   1.8435378e-09 -79.238275      0             -79.238275     -808842.6     
       850   2.6172646e-09 -79.238275      0             -79.238275     -808842.53    
       860   7.6698239e-10 -79.238275      0             -79.238275     -808842.52    
       870   3.7826049e-09 -79.238275      0             -79.238275     -808842.51    
       880   1.2770614e-09 -79.238275      0             -79.238275     -808842.5     
       890   2.634693e-10  -79.238275      0             -79.238275     -808842.49    
       900   1.5931802e-09 -79.238275      0             -79.238275     -808842.5     
       910   3.4647426e-11 -79.238275      0             -79.238275     -808842.48    
       920   2.6249304e-10 -79.238268      0             -79.238268     -808842.48    
       930   5.7597434e-10 -79.238268      0             -79.238268     -808842.48    
       940   4.0691809e-13 -79.238268      0             -79.238268     -808842.48    
       950   7.8587806e-12 -79.238268      0             -79.238268     -808842.48    
       960   5.3145364e-11 -79.238268      0             -79.238268     -808842.48    
       970   7.3030455e-13 -79.238268      0             -79.238268     -808842.48    
       980   1.6568287e-13 -79.238268      0             -79.238268     -808842.48    
       990   1.6566827e-12 -79.238268      0             -79.238268     -808842.48    
      1000   9.0974322e-12 -79.238268      0             -79.238268     -808842.47    
      1010   6.1143087e-13 -79.238268      0             -79.238268     -808842.47    
      1020   6.7521948e-14 -79.238268      0             -79.238268     -808842.47    
Loop time of 9.98057 on 1 procs for 1020 steps with 9 atoms

100.0% CPU use with 1 MPI tasks x 1 OpenMP threads

Minimization stats:
  Stopping criterion = energy tolerance
  Energy initial, next-to-last, final = 
      7.81042342521473  -79.2382677487834  -79.2382677488313
  Force two-norm initial, final = 133.41733 3.7852828e-07
  Force max component initial, final = 64.142596 1.5094491e-07
  Final line search alpha, max atom move = 0 0
  Iterations, force evaluations = 1020 1102

MPI task timing breakdown:
Section |  min time  |  avg time  |  max time  |%varavg| %total
---------------------------------------------------------------
Pair    | 9.9343     | 9.9343     | 9.9343     |   0.0 | 99.54
Neigh   | 0.00051196 | 0.00051196 | 0.00051196 |   0.0 |  0.01
Comm    | 0.028365   | 0.028365   | 0.028365   |   0.0 |  0.28
Output  | 0.0032327  | 0.0032327  | 0.0032327  |   0.0 |  0.03
Modify  | 0          | 0          | 0          |   0.0 |  0.00
Other   |            | 0.01419    |            |       |  0.14

Nlocal:              9 ave           9 max           9 min
Histogram: 1 0 0 0 0 0 0 0 0 0
Nghost:           2686 ave        2686 max        2686 min
Histogram: 1 0 0 0 0 0 0 0 0 0
Neighs:            104 ave         104 max         104 min
Histogram: 1 0 0 0 0 0 0 0 0 0
FullNghs:         7024 ave        7024 max        7024 min
Histogram: 1 0 0 0 0 0 0 0 0 0

Total # of neighbors = 7024
Ave neighs/atom = 780.44444
Neighbor list builds = 3
Dangerous builds = 0
write_data ./StructureDump/sample.7.dat 
System init for write_data ...
variable etot equal etotal
variable ptot equal press
variable pairp equal epair
variable numat equal atoms
run 0
WARNING: No fixes with time integration, atoms won't move (src/verlet.cpp:60)
Per MPI rank memory allocation (min/avg/max) = 4.039 | 4.039 | 4.039 Mbytes
   Step          Temp          E_pair         E_mol          TotEng         Press     
      1020   6.7521948e-14 -79.238268      0             -79.238268     -808842.47    
Loop time of 4.3752e-05 on 1 procs for 0 steps with 9 atoms

80.0% CPU use with 1 MPI tasks x 1 OpenMP threads

MPI task timing breakdown:
Section |  min time  |  avg time  |  max time  |%varavg| %total
---------------------------------------------------------------
Pair    | 0          | 0          | 0          |   0.0 |  0.00
Neigh   | 0          | 0          | 0          |   0.0 |  0.00
Comm    | 0          | 0          | 0          |   0.0 |  0.00
Output  | 0          | 0          | 0          |   0.0 |  0.00
Modify  | 0          | 0          | 0          |   0.0 |  0.00
Other   |            | 4.375e-05  |            |       |100.00

Nlocal:              9 ave           9 max           9 min
Histogram: 1 0 0 0 0 0 0 0 0 0
Nghost:           2691 ave        2691 max        2691 min
Histogram: 1 0 0 0 0 0 0 0 0 0
Neighs:            105 ave         105 max         105 min
Histogram: 1 0 0 0 0 0 0 0 0 0
FullNghs:         7036 ave        7036 max        7036 min
Histogram: 1 0 0 0 0 0 0 0 0 0

Total # of neighbors = 7036
Ave neighs/atom = 781.77778
Neighbor list builds = 0
Dangerous builds = 0
print "${etot} ${pairp} ${ptot} ${numat} " append Summary.dat screen no
Total wall time: 0:00:10
