mass 1 51.996100
pair_style hybrid/overlay soft 1.650 mliap model mliappy LATER descriptor ace coupling_coefficients.yace
Loading python model deferred.
pair_coeff * * soft 100.0
pair_coeff * * mliap   Cr

thermo 10
velocity all create 0.0001 4928459 dist gaussian
Loading python model complete.
min_style  fire
min_modify integrator eulerexplicit tmax 10.0 tmin 0.0 delaystep 5 dtgrow 1.1 dtshrink 0.5 alpha0 0.1 alphashrink 0.99 vdfmax 100000 halfstepback no initialdelay no
minimize 1e-12 1e-12 10000 100000
Neighbor list info ...
  update: every = 1 steps, delay = 0 steps, check = yes
  max neighbors/atom: 2000, page size: 100000
  master list distance cutoff = 13.209389
  ghost atom cutoff = 13.209389
  binsize = 6.6046944, bins = 2 2 1
  2 neighbor lists, perpetual/occasional/extra = 2 0 0
  (1) pair soft, perpetual, half/full trim from (2)
      attributes: half, newton on, cut 3.65
      pair build: halffull/trim/newton/tri
      stencil: none
      bin: none
  (2) pair mliap, perpetual
      attributes: full, newton on
      pair build: full/bin/atomonly
      stencil: full/bin/3d
      bin: standard
  Parameters for fire:
    dmax  delaystep dtgrow dtshrink alpha0 alphashrink tmax tmin   integrator   halfstepback   abcfire  
     0.1      5      1.1     0.5     0.1      0.99      10   0   eulerexplicit       no          no     
Per MPI rank memory allocation (min/avg/max) = 4.037 | 4.037 | 4.037 Mbytes
   Step          Temp          E_pair         E_mol          TotEng         Press     
         0   0             -5.9922528      0             -5.9922528      512922.9     
        10   0.92481962    -11.149769      0             -11.148813     -291346.95    
        20   147.93245     -11.288337      0             -11.135363     -285980.37    
        30   911.20887     -12.116395      0             -11.174132     -100532.8     
        40   404.98805     -13.074869      0             -12.656079     -161878.13    
        50   2001.3868     -14.21579       0             -12.146194     -41552.617    
        60   237.5289      -15.77094       0             -15.525316     -318539.22    
        70   80.448683     -17.630711      0             -17.54752      -55313.847    
        80   1655.7775     -18.707929      0             -16.995721     -269835.19    
        90   1136.0293     -20.643238      0             -19.468491     -68949.837    
       100   3798.5944     -22.944924      0             -19.016869      52605.404    
       110   630.45481     -24.119918      0             -23.467977     -108546.8     
       120   1968.6443     -26.037517      0             -24.001779     -210642.68    
       130   55.829709     -28.228488      0             -28.170756     -293130.28    
       140   1258.8536     -28.858385      0             -27.556628     -236241.05    
       150   11210.306     -33.722313      0             -22.129946     -64323.351    
       160   3744.6789     -44.540095      0             -40.667793     -867758.07    
       170   1777.0093     -46.612297      0             -44.774725     -647028.57    
       180   145.6292      -48.226226      0             -48.075634     -324706.03    
       190   1426.4457     -49.502462      0             -48.027401     -613695.12    
       200   5.0024277     -50.285357      0             -50.280184     -666248.71    
       210   376.02829     -50.586072      0             -50.197229     -588576.25    
       220   2366.4951     -52.677998      0             -50.23085      -636817.31    
       230   10.275582     -54.356943      0             -54.346317     -602900.66    
       240   8.2097142     -54.574011      0             -54.565521     -701343.25    
       250   90.032928     -54.66159       0             -54.568489     -681858.02    
       260   531.37851     -55.10707       0             -54.557582     -692130.76    
       270   41.678998     -55.465715      0             -55.422615     -659143.37    
       280   17.356577     -55.53659       0             -55.518641     -694744.52    
       290   91.173401     -55.622373      0             -55.528093     -714781.92    
       300   851.31877     -56.218823      0             -55.338491     -731895.94    
       310   229.37856     -56.451307      0             -56.214111     -755683.92    
       320   43.716169     -56.502544      0             -56.457338     -765390.87    
       330   258.80339     -56.724564      0             -56.45694      -774869.72    
       340   2743.5387     -56.987151      0             -54.150109     -892323.04    
       350   244.39638     -59.894811      0             -59.642085     -962174.06    
       360   1548.5766     -60.222957      0             -58.621603     -669633.23    
       370   1068.1327     -60.947133      0             -59.842597     -909483.05    
       380   31.080763     -61.31799       0             -61.28585      -862505.71    
       390   279.86029     -61.599234      0             -61.309836     -886772.85    
       400   49.550085     -62.870771      0             -62.819532     -863384.78    
       410   97.149378     -63.196501      0             -63.09604      -830076.31    
       420   251.39091     -63.621036      0             -63.361077     -882988.41    
       430   409.00236     -63.83905       0             -63.416108     -732740.64    
       440   0.4154542     -64.125207      0             -64.124777     -751931.79    
       450   35.053088     -64.156999      0             -64.120751     -751431.47    
       460   108.69237     -64.077976      0             -63.96558      -762472.73    
       470   1.4643988     -64.174615      0             -64.173101     -765300.34    
       480   26.273681     -64.201197      0             -64.174028     -764861.79    
       490   176.25132     -64.346381      0             -64.164123     -771514.01    
       500   49.753147     -65.004085      0             -64.952636     -792912.63    
       510   9.6049133     -65.028643      0             -65.018711     -794704.22    
       520   56.575154     -65.078479      0             -65.019975     -793515.46    
       530   4.6716698     -65.323857      0             -65.319026     -809213.11    
       540   15.241043     -65.359204      0             -65.343443     -807958.31    
       550   136.98125     -65.484816      0             -65.343166     -808224.15    
       560   1.3640458     -65.744672      0             -65.743262     -824729.69    
       570   66.416426     -65.806821      0             -65.738141     -820984.97    
       580   704.61774     -66.421124      0             -65.692492     -844111.39    
       590   2465.6857     -67.196711      0             -64.646992     -893086.76    
       600   84.027774     -67.276554      0             -67.189662     -885865.47    
       610   711.34806     -67.904631      0             -67.169039     -893854.56    
       620   135.20127     -68.790688      0             -68.650879     -951511.96    
       630   45.570367     -68.990662      0             -68.943538     -954486.76    
       640   391.5081      -69.350021      0             -68.94517      -945269.52    
       650   4331.9968     -72.979322      0             -68.499686     -1069269.1    
       660   841.57258     -80.481602      0             -79.611348     -1374840.9    
       670   4326.285      -83.994         0             -79.52027      -1160171.1    
       680   387.39581     -87.992536      0             -87.591938     -1315224.5    
       690   3445.0851     -91.273319      0             -87.710822     -1393828.6    
       700   3273.6096     -94.934398      0             -91.54922      -981461.64    
       710   472.32607     -95.938288      0             -95.449865     -1190929.4    
       720   34.178373     -95.983663      0             -95.94832      -1192727.8    
       730   128.834       -96.093559      0             -95.960334     -1231387.9    
       740   21.271825     -96.336384      0             -96.314387     -1156064      
       750   39.649415     -96.449127      0             -96.408126     -1197236.9    
       760   143.28287     -96.545463      0             -96.397297     -1232094.4    
       770   3.2936508     -96.628213      0             -96.624807     -1208669.3    
       780   44.364247     -96.668881      0             -96.623004     -1197131.4    
       790   14.131336     -96.850288      0             -96.835675     -1230544.9    
       800   36.160866     -96.9078        0             -96.870407     -1200990.8    
       810   10.246103     -96.916985      0             -96.906389     -1189847.5    
       820   55.238571     -96.966364      0             -96.909243     -1196664.3    
       830   36.107139     -97.090053      0             -97.052716     -1174091.9    
       840   12.813163     -97.102827      0             -97.089577     -1191230.3    
       850   98.450762     -97.166636      0             -97.06483      -1210622.8    
       860   3.0910751     -97.249869      0             -97.246673     -1178473.6    
       870   36.885727     -97.284315      0             -97.246172     -1179242.5    
       880   0.5082431     -97.348246      0             -97.34772      -1160551.4    
       890   0.62698711    -97.356654      0             -97.356005     -1177283.3    
       900   6.6520236     -97.36298       0             -97.356102     -1168624.9    
       910   46.410172     -97.405127      0             -97.357135     -1160815.7    
       920   2.5464534     -97.431898      0             -97.429265     -1164409.7    
       930   15.336504     -97.444027      0             -97.428168     -1162572.2    
       940   4.2517598     -97.463146      0             -97.45875      -1161234.9    
       950   2.5661961     -97.480592      0             -97.477939     -1147029.7    
       960   2.9265553     -97.494063      0             -97.491036     -1163686.5    
       970   14.983396     -97.507151      0             -97.491657     -1169257.5    
       980   0.3966955     -97.517277      0             -97.516867     -1166231.8    
       990   4.4731552     -97.52164       0             -97.517014     -1159014.8    
      1000   42.222424     -97.550467      0             -97.506806     -1162355.5    
      1010   18.813938     -97.558682      0             -97.539227     -1154439.5    
      1020   0.81741041    -97.559971      0             -97.559126     -1159073.2    
      1030   6.1007646     -97.565287      0             -97.558978     -1159465.3    
      1040   55.619978     -97.59754       0             -97.540024     -1153613.4    
      1050   0.017317228   -97.604928      0             -97.60491      -1150032.7    
      1060   1.1706521     -97.606067      0             -97.604857     -1155221.4    
      1070   8.2033556     -97.613016      0             -97.604533     -1154234.8    
      1080   0.45915928    -97.620669      0             -97.620194     -1157663      
      1090   0.15109489    -97.622348      0             -97.622191     -1149571.9    
      1100   1.2690057     -97.623547      0             -97.622234     -1152600.8    
      1110   8.985009      -97.631603      0             -97.622312     -1152741.2    
      1120   1.8658611     -97.635809      0             -97.63388      -1153415.9    
      1130   0.32006058    -97.63664       0             -97.636309     -1147919.5    
      1140   1.6593758     -97.638113      0             -97.636397     -1149439      
      1150   0.063336857   -97.644924      0             -97.644858     -1145782.8    
      1160   0.10704528    -97.646475      0             -97.646364     -1142817.7    
      1170   0.14886441    -97.647472      0             -97.647318     -1148396      
      1180   1.3818637     -97.648689      0             -97.64726      -1148045.9    
      1190   0.70837779    -97.653658      0             -97.652926     -1149532.2    
      1200   0.45606984    -97.654294      0             -97.653823     -1147894.7    
      1210   3.594867      -97.656395      0             -97.652677     -1148573      
      1220   0.22972989    -97.65708       0             -97.656843     -1145366.7    
      1230   1.0880722     -97.657926      0             -97.656801     -1145651.5    
      1240   0.80467359    -97.659522      0             -97.65869      -1144894      
      1250   0.28351427    -97.659805      0             -97.659511     -1146072.9    
      1260   2.1363769     -97.661498      0             -97.659289     -1145979.3    
      1270   0.56432875    -97.662468      0             -97.661884     -1147642      
      1280   0.043137557   -97.664009      0             -97.663964     -1144563.7    
      1290   0.35518725    -97.664332      0             -97.663965     -1144962.5    
      1300   2.6188511     -97.666579      0             -97.663871     -1144087.6    
      1310   0.23518148    -97.667222      0             -97.666979     -1144421.9    
      1320   0.07992052    -97.667348      0             -97.667265     -1143910.3    
      1330   0.47053746    -97.667757      0             -97.66727      -1143976.3    
      1340   0.19459842    -97.669111      0             -97.66891      -1141898.5    
      1350   0.42657496    -97.669895      0             -97.669454     -1143154.8    
      1360   0.09168974    -97.669977      0             -97.669883     -1143519.8    
      1370   0.53366745    -97.670454      0             -97.669902     -1142992.6    
      1380   1.370514      -97.672         0             -97.670583     -1142610.2    
      1390   0.0050843961  -97.672065      0             -97.672059     -1142294.1    
      1400   0.10657913    -97.672155      0             -97.672045     -1142889.8    
      1410   0.65996627    -97.672743      0             -97.672061     -1142486      
      1420   0.03702099    -97.673266      0             -97.673228     -1143595.5    
      1430   0.007167692   -97.673775      0             -97.673767     -1142033.1    
      1440   0.099799151   -97.673857      0             -97.673754     -1142171.1    
      1450   0.78761946    -97.674574      0             -97.67376      -1141940.8    
      1460   0.056549508   -97.67564       0             -97.675582     -1140678.1    
      1470   0.012944991   -97.675765      0             -97.675752     -1141314.8    
      1480   0.15618839    -97.6759        0             -97.675738     -1141241.1    
      1490   1.1250587     -97.676828      0             -97.675664     -1140320.5    
      1500   0.029771524   -97.676896      0             -97.676865     -1140640.4    
      1510   0.33289033    -97.677206      0             -97.676862     -1140252.3    
      1520   0.04627806    -97.677694      0             -97.677646     -1140707.5    
      1530   0.012013659   -97.677774      0             -97.677762     -1140117.3    
      1540   0.086152109   -97.677851      0             -97.677762     -1140003.9    
      1550   0.15108374    -97.678111      0             -97.677954     -1139366.1    
      1560   0.00025591744 -97.678179      0             -97.678179     -1139795.3    
      1570   0.012127455   -97.678194      0             -97.678181     -1139840.5    
      1580   0.11082074    -97.678284      0             -97.678169     -1139705.2    
      1590   1.1726653     -97.678209      0             -97.676997     -1137278.7    
      1600   0.00064994997 -97.678812      0             -97.678811     -1138850.2    
      1610   0.015234475   -97.678848      0             -97.678832     -1138885.7    
      1620   0.12514267    -97.678946      0             -97.678817     -1138529.1    
      1630   0.030809317   -97.67904       0             -97.679008     -1138500.8    
      1640   0.0030996759  -97.679046      0             -97.679042     -1138577.5    
      1650   0.027479559   -97.679057      0             -97.679028     -1138588      
      1660   0.0030807239  -97.67916       0             -97.679156     -1138313.4    
      1670   0.0049889027  -97.67918       0             -97.679175     -1138261.5    
      1680   0.0028151986  -97.679189      0             -97.679186     -1138025.1    
      1690   0.0024386549  -97.679198      0             -97.679195     -1138255.4    
      1700   0.016881405   -97.679219      0             -97.679201     -1138276.2    
      1710   0.0037166296  -97.679258      0             -97.679254     -1138065.7    
      1720   0.0028672569  -97.679257      0             -97.679254     -1138080.9    
      1730   0.026590208   -97.679274      0             -97.679246     -1137906      
      1740   0.00093547423 -97.679277      0             -97.679276     -1138057      
      1750   0.0093173048  -97.67929       0             -97.67928      -1138057.2    
      1760   0.0040097902  -97.679313      0             -97.679309     -1137908.6    
      1770   0.0023855839  -97.679322      0             -97.67932      -1137978.2    
      1780   0.02142507    -97.679334      0             -97.679312     -1137978.2    
      1790   0.0010424021  -97.679351      0             -97.67935      -1137871.1    
      1800   0.0060399464  -97.679346      0             -97.67934      -1137897.5    
      1810   0.00015775071 -97.679347      0             -97.679347     -1137862.6    
      1820   0.0019267599  -97.679357      0             -97.679355     -1137760.4    
      1830   0.0010278745  -97.679365      0             -97.679364     -1137704.2    
      1840   0.00076229327 -97.679363      0             -97.679362     -1137772.2    
      1850   0.0043004107  -97.679372      0             -97.679367     -1137788      
      1860   0.019001061   -97.679377      0             -97.679357     -1137692.5    
      1870   3.5319156e-05 -97.679377      0             -97.679377     -1137702.7    
      1880   0.00073083528 -97.679379      0             -97.679379     -1137672.9    
      1890   0.0059650371  -97.679392      0             -97.679386     -1137640.7    
      1900   0.0009994085  -97.679395      0             -97.679394     -1137628.5    
      1910   0.0011526872  -97.679399      0             -97.679398     -1137555.2    
      1920   0.0027429538  -97.679404      0             -97.679402     -1137529.5    
      1930   0.00042075722 -97.679406      0             -97.679405     -1137549.8    
      1940   0.0037622744  -97.679416      0             -97.679412     -1137516      
      1950   0.00050928161 -97.679413      0             -97.679413     -1137431.6    
      1960   5.8072128e-05 -97.679417      0             -97.679417     -1137513      
      1970   0.00063050546 -97.67941       0             -97.67941      -1137495.4    
      1980   0.0047237158  -97.679412      0             -97.679407     -1137485.6    
      1990   9.2107948e-05 -97.679419      0             -97.679419     -1137446.1    
      2000   0.001203817   -97.679427      0             -97.679425     -1137445.7    
      2010   5.2642651e-06 -97.679429      0             -97.679429     -1137391.8    
      2020   0.00043716225 -97.679419      0             -97.679418     -1137403.8    
      2030   0.00020441238 -97.679443      0             -97.679442     -1137321.5    
      2040   6.3786273e-07 -97.679424      0             -97.679424     -1137364.6    
      2050   8.4453243e-05 -97.679423      0             -97.679423     -1137371.2    
      2060   0.00072537941 -97.679418      0             -97.679417     -1137358.2    
      2070   0.00053574424 -97.679425      0             -97.679425     -1137351.9    
      2080   0.0001449419  -97.679436      0             -97.679436     -1137338.1    
      2090   0.0021150848  -97.679429      0             -97.679427     -1137316.9    
      2100   8.9547786e-05 -97.679438      0             -97.679438     -1137302.7    
      2110   0.00061762381 -97.679436      0             -97.679435     -1137302      
      2120   1.3409107e-05 -97.679446      0             -97.679446     -1137296.9    
      2130   0.00020391303 -97.679434      0             -97.679434     -1137293.8    
      2140   0.0015635438  -97.679432      0             -97.67943      -1137241.3    
      2150   5.5272614e-05 -97.679439      0             -97.679439     -1137259.5    
      2160   5.5620327e-06 -97.679441      0             -97.679441     -1137250      
      2170   2.0923816e-05 -97.679435      0             -97.679435     -1137261.7    
      2180   0.00014426671 -97.679442      0             -97.679442     -1137262.7    
      2190   0.00024592975 -97.67944       0             -97.67944      -1137248.2    
      2200   1.0403961e-06 -97.679431      0             -97.679431     -1137251.2    
      2210   2.7807617e-05 -97.679429      0             -97.679429     -1137242.5    
      2220   0.00019579151 -97.679438      0             -97.679438     -1137239.7    
      2230   2.0486832e-06 -97.679431      0             -97.679431     -1137230.4    
      2240   4.9443188e-05 -97.679431      0             -97.679431     -1137235.6    
      2250   0.00039013276 -97.679437      0             -97.679437     -1137196.7    
      2260   1.1867628e-05 -97.67944       0             -97.67944      -1137222.3    
      2270   0.00015203494 -97.679438      0             -97.679438     -1137216.2    
      2280   0.0018981248  -97.679445      0             -97.679443     -1137209      
      2290   3.7439968e-05 -97.679437      0             -97.679437     -1137205.1    
      2300   3.2926957e-06 -97.679446      0             -97.679446     -1137196.3    
      2310   1.7666135e-05 -97.679438      0             -97.679438     -1137199.2    
      2320   0.00013309783 -97.679446      0             -97.679446     -1137189.4    
      2330   3.4652313e-05 -97.67944       0             -97.67944      -1137185.3    
      2340   1.1515668e-06 -97.67944       0             -97.67944      -1137192.1    
      2350   1.456145e-05  -97.679445      0             -97.679445     -1137190.1    
      2360   9.519022e-05  -97.679443      0             -97.679443     -1137192.8    
      2370   1.0505138e-05 -97.67944       0             -97.67944      -1137181.7    
      2380   3.1266698e-06 -97.679437      0             -97.679437     -1137182      
      2390   1.8320493e-05 -97.679436      0             -97.679436     -1137178.6    
      2400   1.0070445e-05 -97.679443      0             -97.679443     -1137179.8    
      2410   4.4844525e-06 -97.679437      0             -97.679437     -1137175.7    
      2420   3.7123867e-05 -97.67943       0             -97.67943      -1137168.9    
      2430   1.1883782e-06 -97.679442      0             -97.679442     -1137173.1    
      2440   1.3847892e-05 -97.679441      0             -97.679441     -1137171      
      2450   2.291854e-07  -97.679441      0             -97.679441     -1137173.1    
      2460   2.8094759e-07 -97.679453      0             -97.679453     -1137168.3    
      2470   2.6563058e-06 -97.679443      0             -97.679442     -1137170.3    
      2480   1.8130525e-05 -97.679442      0             -97.679442     -1137170.2    
      2490   1.2628192e-06 -97.679443      0             -97.679443     -1137167.8    
      2500   6.6692603e-06 -97.679435      0             -97.679435     -1137167.3    
      2510   1.8309066e-06 -97.679438      0             -97.679438     -1137166.5    
      2520   1.8667837e-06 -97.679446      0             -97.679446     -1137164.6    
      2530   9.7599141e-06 -97.679447      0             -97.679447     -1137161.2    
      2540   3.2992762e-06 -97.67944       0             -97.67944      -1137162.5    
      2550   1.5283665e-06 -97.679443      0             -97.679443     -1137163.1    
      2560   1.1442777e-06 -97.679437      0             -97.679437     -1137161.6    
      2570   7.5283568e-06 -97.67944       0             -97.67944      -1137159.4    
      2580   2.6076324e-07 -97.679436      0             -97.679436     -1137159.7    
      2590   2.320683e-06  -97.679432      0             -97.679432     -1137160.3    
      2600   7.5784193e-07 -97.679447      0             -97.679447     -1137155.2    
      2610   1.8612749e-06 -97.679438      0             -97.679438     -1137157.5    
      2620   4.8972518e-07 -97.679438      0             -97.679438     -1137158.3    
      2630   2.8986564e-06 -97.679439      0             -97.679439     -1137157      
      2640   1.4166576e-06 -97.679431      0             -97.679431     -1137157.3    
      2650   6.8203872e-07 -97.679429      0             -97.679429     -1137155.9    
      2660   5.6161965e-06 -97.679445      0             -97.679445     -1137153.7    
      2670   1.4070102e-07 -97.679437      0             -97.679437     -1137154.8    
      2680   2.2423764e-06 -97.679446      0             -97.679446     -1137154.3    
      2690   4.6399812e-05 -97.67944       0             -97.67944      -1137143.8    
      2700   3.4200366e-07 -97.679433      0             -97.679433     -1137149.6    
      2710   3.8831338e-08 -97.679441      0             -97.679441     -1137151.6    
      2720   2.6097891e-07 -97.679447      0             -97.679447     -1137150.7    
      2730   1.6794906e-06 -97.67944       0             -97.67944      -1137149.6    
      2740   5.3816576e-08 -97.679443      0             -97.679443     -1137149.8    
      2750   4.736819e-07  -97.679434      0             -97.679434     -1137150.2    
      2760   6.5102081e-07 -97.679429      0             -97.679429     -1137149.6    
      2770   2.0644276e-07 -97.679436      0             -97.679436     -1137150      
      2780   1.1506545e-06 -97.679439      0             -97.679439     -1137149.2    
      2790   4.0226815e-08 -97.67943       0             -97.67943      -1137148.9    
      2800   2.8930453e-07 -97.679437      0             -97.679437     -1137149.3    
      2810   2.6303176e-06 -97.679434      0             -97.679434     -1137146.2    
      2820   1.1305018e-06 -97.679434      0             -97.679434     -1137148.2    
      2830   4.8529708e-08 -97.679434      0             -97.679434     -1137148.4    
      2840   3.640421e-07  -97.67944       0             -97.67944      -1137148.1    
      2850   2.6767141e-06 -97.679443      0             -97.679443     -1137150.1    
      2860   2.5305704e-09 -97.679441      0             -97.679441     -1137147.5    
      2870   6.3518471e-08 -97.679441      0             -97.679441     -1137147.1    
      2880   4.713227e-07  -97.679437      0             -97.679437     -1137146.6    
      2890   4.0469437e-08 -97.679449      0             -97.679449     -1137146.3    
      2900   9.2514961e-09 -97.679434      0             -97.679434     -1137146.8    
      2910   8.3397605e-08 -97.679448      0             -97.679448     -1137146.6    
      2920   6.1406368e-07 -97.679436      0             -97.679436     -1137146.6    
      2930   1.9275282e-08 -97.679439      0             -97.679439     -1137146.1    
      2940   1.4573144e-07 -97.679453      0             -97.679453     -1137146.2    
      2950   5.5263028e-08 -97.679444      0             -97.679444     -1137146      
      2960   3.1720559e-10 -97.679443      0             -97.679443     -1137145.9    
      2970   2.4837421e-08 -97.679435      0             -97.679435     -1137145.6    
      2980   1.7776644e-07 -97.679449      0             -97.679449     -1137145.5    
      2990   4.4986633e-09 -97.679446      0             -97.679446     -1137145.1    
      3000   5.2969445e-08 -97.679446      0             -97.679446     -1137145.4    
      3010   2.7914046e-08 -97.679444      0             -97.679444     -1137145.2    
      3020   1.3994494e-08 -97.679444      0             -97.679444     -1137145.2    
      3030   1.1409911e-07 -97.679442      0             -97.679442     -1137145.1    
      3040   1.3593184e-09 -97.679448      0             -97.679448     -1137145      
      3050   3.1489229e-08 -97.67944       0             -97.67944      -1137144.8    
      3060   2.2959302e-09 -97.679437      0             -97.679437     -1137144.8    
      3070   9.7827385e-09 -97.679444      0             -97.679444     -1137144.7    
      3080   8.1758037e-08 -97.679436      0             -97.679436     -1137144.6    
      3090   7.0541635e-09 -97.679441      0             -97.679441     -1137144.7    
      3100   1.1170977e-09 -97.679441      0             -97.679441     -1137144.4    
      3110   1.4501863e-08 -97.679441      0             -97.679441     -1137144.4    
      3120   1.1282166e-07 -97.679446      0             -97.679446     -1137144.2    
      3130   2.3193351e-09 -97.679445      0             -97.679445     -1137144.1    
      3140   2.7451208e-08 -97.679444      0             -97.679444     -1137144      
      3150   1.0819391e-10 -97.679442      0             -97.679442     -1137144      
      3160   1.0025529e-08 -97.679442      0             -97.679442     -1137143.9    
      3170   4.1896646e-09 -97.67944       0             -97.67944      -1137144      
      3180   1.3422345e-11 -97.67944       0             -97.67944      -1137143.8    
      3190   1.8803907e-09 -97.67944       0             -97.67944      -1137143.8    
      3200   1.6985099e-08 -97.679447      0             -97.679447     -1137143.8    
      3210   1.1520402e-08 -97.679445      0             -97.679445     -1137143.5    
      3220   3.3540203e-09 -97.679445      0             -97.679445     -1137143.5    
      3230   4.426949e-08  -97.679444      0             -97.679444     -1137143.5    
      3240   1.6250858e-09 -97.679443      0             -97.679443     -1137143.5    
      3250   1.3146749e-08 -97.679443      0             -97.679443     -1137143.4    
      3260   6.8861749e-10 -97.679443      0             -97.679443     -1137143.4    
      3270   4.3544643e-09 -97.679443      0             -97.679443     -1137143.4    
      3280   4.0939048e-09 -97.679442      0             -97.679442     -1137143.4    
      3290   1.3843576e-09 -97.679442      0             -97.679442     -1137143.4    
      3300   8.6733001e-09 -97.679449      0             -97.679449     -1137143.3    
      3310   7.5264851e-10 -97.679449      0             -97.679449     -1137143.5    
      3320   1.6707948e-10 -97.679448      0             -97.679448     -1137143.3    
      3330   1.4214436e-09 -97.679448      0             -97.679448     -1137143.3    
      3340   9.8518365e-09 -97.67944       0             -97.67944      -1137143.3    
      3350   9.9389115e-10 -97.679432      0             -97.679432     -1137143.2    
      3360   1.9256635e-10 -97.679432      0             -97.679432     -1137143.2    
      3370   1.7624398e-09 -97.67944       0             -97.67944      -1137143.2    
      3380   1.0714261e-08 -97.679447      0             -97.679447     -1137143.1    
      3390   4.1563575e-10 -97.679446      0             -97.679446     -1137143.1    
      3400   3.4120494e-09 -97.679438      0             -97.679438     -1137143.1    
      3410   1.3673521e-10 -97.679438      0             -97.679438     -1137143.1    
      3420   1.1259117e-10 -97.679438      0             -97.679438     -1137143      
      3430   7.9626251e-10 -97.679438      0             -97.679438     -1137143.1    
      3440   6.4923445e-09 -97.679445      0             -97.679445     -1137143      
      3450   3.099078e-10  -97.679445      0             -97.679445     -1137143      
      3460   1.4934074e-09 -97.679445      0             -97.679445     -1137143      
      3470   5.068829e-10  -97.679445      0             -97.679445     -1137143      
      3480   3.8565818e-10 -97.679444      0             -97.679444     -1137143      
      3490   2.7395988e-10 -97.679444      0             -97.679444     -1137143      
      3500   1.5990965e-09 -97.679444      0             -97.679444     -1137143      
      3510   7.627692e-11  -97.679444      0             -97.679444     -1137142.9    
      3520   1.6665944e-11 -97.679444      0             -97.679444     -1137142.9    
      3530   2.526812e-10  -97.679444      0             -97.679444     -1137142.9    
      3540   2.0415673e-09 -97.679444      0             -97.679444     -1137142.9    
      3550   1.6477007e-08 -97.679443      0             -97.679443     -1137142.7    
      3560   2.4115501e-11 -97.679443      0             -97.679443     -1137142.9    
      3570   3.5440928e-10 -97.679443      0             -97.679443     -1137142.9    
      3580   2.3477059e-09 -97.679435      0             -97.679435     -1137142.8    
      3590   5.5067025e-13 -97.679427      0             -97.679427     -1137142.8    
      3600   5.6425615e-11 -97.679427      0             -97.679427     -1137142.8    
      3610   4.6782836e-10 -97.679442      0             -97.679442     -1137142.8    
      3620   2.6744475e-11 -97.679442      0             -97.679442     -1137142.8    
      3630   1.5817056e-10 -97.679442      0             -97.679442     -1137142.8    
      3640   6.120161e-13  -97.679442      0             -97.679442     -1137142.8    
      3650   4.0601182e-11 -97.679442      0             -97.679442     -1137142.8    
      3660   2.9128828e-10 -97.679442      0             -97.679442     -1137142.8    
      3670   8.7570745e-12 -97.679442      0             -97.679442     -1137142.8    
      3680   9.876099e-11  -97.679442      0             -97.679442     -1137142.8    
      3690   7.7150596e-11 -97.679442      0             -97.679442     -1137142.8    
      3700   2.8315687e-11 -97.679442      0             -97.679442     -1137142.8    
      3710   8.373819e-12  -97.679441      0             -97.679441     -1137142.8    
      3720   7.1735358e-12 -97.679441      0             -97.679441     -1137142.8    
      3730   8.9332132e-11 -97.679441      0             -97.679441     -1137142.8    
      3740   5.3655411e-11 -97.679441      0             -97.679441     -1137142.7    
      3750   1.9579895e-11 -97.679441      0             -97.679441     -1137142.7    
      3760   3.2260663e-10 -97.679441      0             -97.679441     -1137142.7    
      3770   1.9653084e-11 -97.679441      0             -97.679441     -1137142.7    
      3780   5.4237348e-12 -97.679441      0             -97.679441     -1137142.7    
      3790   4.478351e-11  -97.679441      0             -97.679441     -1137142.7    
      3800   7.1797497e-11 -97.679441      0             -97.679441     -1137142.7    
      3810   5.1677892e-13 -97.679433      0             -97.679433     -1137142.7    
      3820   7.8482775e-12 -97.679433      0             -97.679433     -1137142.7    
      3830   5.7700663e-11 -97.679441      0             -97.679441     -1137142.7    
      3840   6.0992871e-12 -97.679441      0             -97.679441     -1137142.7    
      3850   1.2320454e-12 -97.679441      0             -97.679441     -1137142.7    
      3860   1.0842669e-11 -97.679441      0             -97.679441     -1137142.7    
      3870   6.4062255e-11 -97.679441      0             -97.679441     -1137142.7    
      3880   3.301767e-12  -97.679441      0             -97.679441     -1137142.7    
      3890   2.1848202e-11 -97.679441      0             -97.679441     -1137142.7    
      3900   8.7426319e-12 -97.679441      0             -97.679441     -1137142.7    
      3910   1.2261417e-13 -97.679441      0             -97.679441     -1137142.7    
      3920   2.8382056e-12 -97.679441      0             -97.679441     -1137142.7    
      3930   2.0812638e-11 -97.679441      0             -97.679441     -1137142.7    
      3940   1.1015471e-12 -97.679441      0             -97.679441     -1137142.7    
      3950   7.7061629e-12 -97.679441      0             -97.679441     -1137142.7    
      3960   3.0845621e-12 -97.679441      0             -97.679441     -1137142.7    
      3970   1.698713e-12  -97.679441      0             -97.679441     -1137142.7    
      3980   1.4315289e-11 -97.679441      0             -97.679441     -1137142.7    
      3990   3.1886636e-13 -97.679441      0             -97.679441     -1137142.7    
      4000   4.2576552e-12 -97.679441      0             -97.679441     -1137142.7    
      4010   8.6038084e-13 -97.679441      0             -97.679441     -1137142.7    
      4020   1.1164982e-12 -97.679441      0             -97.679441     -1137142.7    
      4030   9.5797131e-12 -97.679441      0             -97.679441     -1137142.7    
      4040   1.7337972e-12 -97.679441      0             -97.679441     -1137142.7    
      4050   1.6324509e-13 -97.679441      0             -97.679441     -1137142.7    
Loop time of 38.7634 on 1 procs for 4050 steps with 9 atoms

99.5% CPU use with 1 MPI tasks x 1 OpenMP threads

Minimization stats:
  Stopping criterion = energy tolerance
  Energy initial, next-to-last, final = 
     -5.99225281385017  -97.6794405875253  -97.6794405874695
  Force two-norm initial, final = 89.557152 7.606684e-07
  Force max component initial, final = 46.093139 3.0554652e-07
  Final line search alpha, max atom move = 0 0
  Iterations, force evaluations = 4050 4377

MPI task timing breakdown:
Section |  min time  |  avg time  |  max time  |%varavg| %total
---------------------------------------------------------------
Pair    | 38.576     | 38.576     | 38.576     |   0.0 | 99.52
Neigh   | 0.00048354 | 0.00048354 | 0.00048354 |   0.0 |  0.00
Comm    | 0.1182     | 0.1182     | 0.1182     |   0.0 |  0.30
Output  | 0.01249    | 0.01249    | 0.01249    |   0.0 |  0.03
Modify  | 0          | 0          | 0          |   0.0 |  0.00
Other   |            | 0.05576    |            |       |  0.14

Nlocal:              9 ave           9 max           9 min
Histogram: 1 0 0 0 0 0 0 0 0 0
Nghost:           2841 ave        2841 max        2841 min
Histogram: 1 0 0 0 0 0 0 0 0 0
Neighs:            104 ave         104 max         104 min
Histogram: 1 0 0 0 0 0 0 0 0 0
FullNghs:         7116 ave        7116 max        7116 min
Histogram: 1 0 0 0 0 0 0 0 0 0

Total # of neighbors = 7116
Ave neighs/atom = 790.66667
Neighbor list builds = 3
Dangerous builds = 0
write_data ./StructureDump/sample.1.dat 
System init for write_data ...
variable etot equal etotal
variable ptot equal press
variable pairp equal epair
variable numat equal atoms
run 0
WARNING: No fixes with time integration, atoms won't move (src/verlet.cpp:60)
Per MPI rank memory allocation (min/avg/max) = 4.041 | 4.041 | 4.041 Mbytes
   Step          Temp          E_pair         E_mol          TotEng         Press     
      4050   1.6324509e-13 -97.679441      0             -97.679441     -40435.816    
Loop time of 3.417e-05 on 1 procs for 0 steps with 9 atoms

178.5% CPU use with 1 MPI tasks x 1 OpenMP threads

MPI task timing breakdown:
Section |  min time  |  avg time  |  max time  |%varavg| %total
---------------------------------------------------------------
Pair    | 0          | 0          | 0          |   0.0 |  0.00
Neigh   | 0          | 0          | 0          |   0.0 |  0.00
Comm    | 0          | 0          | 0          |   0.0 |  0.00
Output  | 0          | 0          | 0          |   0.0 |  0.00
Modify  | 0          | 0          | 0          |   0.0 |  0.00
Other   |            | 3.417e-05  |            |       |100.00

Nlocal:              9 ave           9 max           9 min
Histogram: 1 0 0 0 0 0 0 0 0 0
Nghost:           2916 ave        2916 max        2916 min
Histogram: 1 0 0 0 0 0 0 0 0 0
Neighs:            110 ave         110 max         110 min
Histogram: 1 0 0 0 0 0 0 0 0 0
FullNghs:         7032 ave        7032 max        7032 min
Histogram: 1 0 0 0 0 0 0 0 0 0

Total # of neighbors = 7032
Ave neighs/atom = 781.33333
Neighbor list builds = 0
Dangerous builds = 0
print "${etot} ${pairp} ${ptot} ${numat} " append Summary.dat screen no
Total wall time: 0:00:39
