mass 1 51.996100
pair_style hybrid/overlay soft 1.650 mliap model mliappy LATER descriptor ace coupling_coefficients.yace
Loading python model deferred.
pair_coeff * * soft 100.0
pair_coeff * * mliap   Cr

thermo 10
velocity all create 0.0001 4928459 dist gaussian
Loading python model complete.
min_style  fire
min_modify integrator eulerexplicit tmax 10.0 tmin 0.0 delaystep 5 dtgrow 1.1 dtshrink 0.5 alpha0 0.1 alphashrink 0.99 vdfmax 100000 halfstepback no initialdelay no
minimize 1e-12 1e-12 10000 100000
Neighbor list info ...
  update: every = 1 steps, delay = 0 steps, check = yes
  max neighbors/atom: 2000, page size: 100000
  master list distance cutoff = 13.209389
  ghost atom cutoff = 13.209389
  binsize = 6.6046944, bins = 2 1 1
  2 neighbor lists, perpetual/occasional/extra = 2 0 0
  (1) pair soft, perpetual, half/full trim from (2)
      attributes: half, newton on, cut 3.65
      pair build: halffull/trim/newton/tri
      stencil: none
      bin: none
  (2) pair mliap, perpetual
      attributes: full, newton on
      pair build: full/bin/atomonly
      stencil: full/bin/3d
      bin: standard
  Parameters for fire:
    dmax  delaystep dtgrow dtshrink alpha0 alphashrink tmax tmin   integrator   halfstepback   abcfire  
     0.1      5      1.1     0.5     0.1      0.99      10   0   eulerexplicit       no          no     
Per MPI rank memory allocation (min/avg/max) = 4.013 | 4.013 | 4.013 Mbytes
   Step          Temp          E_pair         E_mol          TotEng         Press     
         0   0              2.0430787      0              2.0430787      1230397.8    
        10   4.7411444     -7.3721262      0             -7.3678363      272726.82    
        20   399.90983     -7.6745111      0             -7.3126643      152508.72    
        30   35.412228     -7.7077863      0             -7.6757445      124409.77    
        40   214.93135     -7.8755035      0             -7.6810291      175590.09    
        50   1593.9985     -9.0791428      0             -7.6368594      218155.87    
        60   43651.914     -12.098568      0              27.398601      701993.95    
        70   611.40549     -13.593921      0             -13.040708      17391.908    
        80   53.323717     -14.392128      0             -14.34388       277710.66    
        90   54.280744     -14.765646      0             -14.716531      93332.776    
       100   364.23157     -15.062528      0             -14.732964      83762.167    
       110   173.97208     -15.894005      0             -15.736592      173858.59    
       120   110.9439      -16.29619       0             -16.195805      82694.509    
       130   632.73351     -16.42377       0             -15.851259      145709.01    
       140   30.592802     -16.528365      0             -16.500684      117113.05    
       150   186.20983     -16.665371      0             -16.496884      94661.595    
       160   277.19721     -16.912902      0             -16.662088      292846.32    
       170   0.23441002    -17.121157      0             -17.120945      188685.13    
       180   22.616816     -17.139133      0             -17.118668      179556.99    
       190   46.4472       -17.172191      0             -17.130164      137803.37    
       200   0.32492188    -17.260765      0             -17.260471      160209.15    
       210   14.354318     -17.273483      0             -17.260495      152969.1     
       220   17.742509     -17.310728      0             -17.294674      148882.58    
       230   9.7839619     -17.562233      0             -17.55338       144723.91    
       240   35.08285      -17.337351      0             -17.305607      155696.6     
       250   1.0850893     -17.33182       0             -17.330838      151916.22    
       260   10.976268     -17.341265      0             -17.331334      154096.15    
       270   118.9628      -17.410707      0             -17.303067      146065.28    
       280   33.060467     -17.429882      0             -17.399968      141457.51    
       290   4.3883339     -17.436168      0             -17.432198      142802.05    
       300   23.485939     -17.481142      0             -17.459891      151552.13    
       310   15.83351      -17.803067      0             -17.788741      142851.07    
       320   10.238028     -17.819076      0             -17.809812      136087.14    
       330   70.037386     -17.610188      0             -17.546817      143967.34    
       340   2.3844936     -17.66976       0             -17.667602      126357.06    
       350   30.771649     -17.693893      0             -17.666051      144624.74    
       360   60.430581     -17.785285      0             -17.730607      133970.95    
       370   0.11196822    -18.072879      0             -18.072778      111931.93    
       380   10.173711     -18.081202      0             -18.071997      121411.23    
       390   66.779384     -18.115294      0             -18.054871      123189.47    
       400   0.91527358    -18.210914      0             -18.210086      119382.12    
       410   1.4485341     -18.227148      0             -18.225837      112174.39    
       420   15.019981     -18.240171      0             -18.22658       118318.28    
       430   104.88537     -18.319316      0             -18.224413      124944.22    
       440   3.8613274     -18.375579      0             -18.372085      227528.89    
       450   20.546193     -18.391869      0             -18.373279      250650.6     
       460   6.6224893     -18.39969       0             -18.393698      258324.27    
       470   6.0682258     -18.41172       0             -18.406229      258400.51    
       480   1.2786383     -18.414136      0             -18.412979      256537.22    
       490   11.065415     -18.422666      0             -18.412654      255571.16    
       500   87.851025     -18.466105      0             -18.386616      259058.37    
       510   1.9846491     -18.474156      0             -18.47236       253044.96    
       520   15.385138     -18.484236      0             -18.470315      260137.91    
       530   1.7722477     -18.500129      0             -18.498525      252412.15    
       540   0.77330377    -18.501118      0             -18.500418      251209.25    
       550   4.3201679     -18.504294      0             -18.500385      251266.97    
       560   2.1885527     -18.516101      0             -18.51412       248574.87    
       570   1.3241523     -18.517836      0             -18.516638      250253.63    
       580   10.378513     -18.523717      0             -18.514327      249461.54    
       590   0.29244338    -18.524795      0             -18.52453       252152.49    
       600   2.639397      -18.526846      0             -18.524458      251783.74    
       610   0.64357677    -18.535375      0             -18.534793      252639.86    
       620   0.67335512    -18.536286      0             -18.535677      251960.14    
       630   6.0412371     -18.540697      0             -18.535231      253243.81    
       640   0.18797751    -18.545181      0             -18.545011      252653.17    
       650   2.0380958     -18.546736      0             -18.544892      252222.69    
       660   1.4959423     -18.5498        0             -18.548446      253405.56    
       670   0.63866687    -18.550346      0             -18.549768      251097.74    
       680   4.8713298     -18.55345       0             -18.549042      250157.7     
       690   0.18355778    -18.554194      0             -18.554028      252778.65    
       700   1.4376592     -18.555303      0             -18.554002      252445.15    
       710   0.99488976    -18.55701       0             -18.55611       257637.24    
       720   0.0017998403  -18.560177      0             -18.560175      252874.68    
       730   0.24149814    -18.560375      0             -18.560157      252351.74    
       740   2.0792861     -18.561998      0             -18.560116      252443.51    
       750   0.62243769    -18.568249      0             -18.567686      252230.9     
       760   0.47298005    -18.568803      0             -18.568375      252521.99    
       770   4.9276328     -18.57251       0             -18.568051      255393.43    
       780   1.0129481     -18.575897      0             -18.574981      255208.81    
       790   0.17010826    -18.576075      0             -18.575921      254563.36    
       800   1.3565996     -18.57716       0             -18.575933      253731.67    
       810   0.9948833     -18.587398      0             -18.586498      254839.88    
       820   0.35246103    -18.588047      0             -18.587728      254817.58    
       830   0.20420188    -18.681127      0             -18.680942      252352.73    
       840   1.9853048     -18.682467      0             -18.68067       256819.54    
       850   0.078424091   -18.682722      0             -18.682651      255287.75    
       860   0.63038798    -18.683204      0             -18.682634      254928.39    
       870   0.37485845    -18.684942      0             -18.684603      253460.91    
       880   0.20657677    -18.685188      0             -18.685001      254346.13    
       890   0.12008873    -18.685282      0             -18.685174      255175.91    
       900   0.6106182     -18.685763      0             -18.685211      255082.56    
       910   1.6765854     -18.686629      0             -18.685112      257856.21    
       920   0.012818483   -18.686961      0             -18.68695       255442.47    
       930   0.10452469    -18.687052      0             -18.686957      256495.12    
       940   0.71532222    -18.687527      0             -18.686879      256839.69    
       950   0.020435385   -18.687608      0             -18.68759       255826.1     
       960   0.1438014     -18.687727      0             -18.687597      256534.72    
       970   1.3817036     -18.688419      0             -18.687169      255999.65    
       980   0.04408157    -18.688507      0             -18.688467      256694.03    
       990   0.26234715    -18.688712      0             -18.688474      257262.22    
      1000   0.0062320078  -18.688874      0             -18.688868      257141.19    
      1010   0.080470405   -18.688941      0             -18.688868      256750.63    
      1020   0.71859864    -18.689385      0             -18.688735      257683.75    
      1030   0.02224871    -18.689432      0             -18.689412      257246.56    
      1040   0.1742653     -18.689573      0             -18.689416      257115.28    
      1050   0.0011691782  -18.68985       0             -18.689849      257921.85    
      1060   0.053022479   -18.689898      0             -18.68985       257401.07    
      1070   0.063027817   -18.690058      0             -18.690001      257530.65    
      1080   0.030804094   -18.690084      0             -18.690056      257740.94    
      1090   0.12795956    -18.690177      0             -18.690061      258283.85    
      1100   0.0036103724  -18.690254      0             -18.690251      258187.4     
      1110   0.038071742   -18.690286      0             -18.690251      257847       
      1120   0.36709086    -18.69051       0             -18.690178      258264.56    
      1130   0.14563       -18.690574      0             -18.690442      258110.4     
      1140   0.0066020789  -18.690583      0             -18.690577      258350.26    
      1150   0.058028747   -18.690627      0             -18.690575      258441.56    
      1160   0.45805205    -18.690915      0             -18.690501      258474.06    
      1170   0.021292575   -18.690937      0             -18.690918      258660.64    
      1180   0.14954635    -18.691021      0             -18.690886      258896.06    
      1190   0.0045185318  -18.691051      0             -18.691047      258972.42    
      1200   0.045457915   -18.691086      0             -18.691044      259041.31    
      1210   0.087058823   -18.691219      0             -18.69114       259680.09    
      1220   0.00020577668 -18.691256      0             -18.691256      259266.37    
      1230   0.008479419   -18.691263      0             -18.691255      259165.59    
      1240   0.073320439   -18.691321      0             -18.691255      259283.59    
      1250   0.047842481   -18.691504      0             -18.69146       259636.8     
      1260   0.020056699   -18.691519      0             -18.691501      259505.46    
      1270   0.16460273    -18.691608      0             -18.691459      260593.97    
      1280   0.0082958131  -18.691677      0             -18.691669      259864.47    
      1290   0.085100047   -18.691741      0             -18.691664      260150.71    
      1300   0.016244261   -18.691805      0             -18.691791      260359.46    
      1310   0.0018314135  -18.691819      0             -18.691818      259997.05    
      1320   0.020246795   -18.691835      0             -18.691816      260073.25    
      1330   0.14473798    -18.691948      0             -18.691817      259981.14    
      1340   0.0057324484  -18.692021      0             -18.692016      260361.27    
      1350   0.054077386   -18.692065      0             -18.692016      260356.31    
      1360   0.0012973009  -18.69215       0             -18.692149      260721.44    
      1370   0.026560962   -18.69217       0             -18.692146      260657.43    
      1380   0.019980855   -18.692215      0             -18.692197      260898.94    
      1390   0.0094411389  -18.692222      0             -18.692213      260582.41    
      1400   0.071958836   -18.692267      0             -18.692201      260484.46    
      1410   0.0040432622  -18.692283      0             -18.692279      260913.43    
      1420   0.024710066   -18.692301      0             -18.692279      260878.58    
      1430   0.031350568   -18.692314      0             -18.692286      261945.4     
      1440   0.006344583   -18.692405      0             -18.692399      261040.08    
      1450   0.078075327   -18.692466      0             -18.692395      261178.93    
      1460   0.7956858     -18.692328      0             -18.691608      263453.79    
      1470   0.01293951    -18.69268       0             -18.692669      261442.72    
      1480   0.0017467204  -18.692685      0             -18.692683      261571.07    
      1490   0.015871245   -18.692698      0             -18.692684      261555.42    
      1500   0.10456212    -18.692775      0             -18.69268       262062.58    
      1510   0.0075850488  -18.692833      0             -18.692826      261815.07    
      1520   0.045534057   -18.692865      0             -18.692823      262078.67    
      1530   0.017874957   -18.692889      0             -18.692873      261989.87    
      1540   0.0079097863  -18.692923      0             -18.692916      261887.26    
      1550   0.0043991815  -18.692954      0             -18.69295       261673.09    
      1560   0.006541453   -18.692975      0             -18.69297       262068.62    
      1570   0.034636629   -18.693         0             -18.692968      262305.02    
      1580   0.0014489552  -18.693019      0             -18.693017      262322.52    
      1590   0.011826879   -18.693031      0             -18.693021      262097.77    
      1600   0.0072456311  -18.693063      0             -18.693057      262161.23    
      1610   0.0036795082  -18.69307       0             -18.693067      262271.59    
      1620   0.028865069   -18.693093      0             -18.693066      262410.57    
      1630   0.050743392   -18.693147      0             -18.693101      262112.85    
      1640   0.00059390574 -18.69316       0             -18.693159      262583.77    
      1650   0.006544774   -18.693166      0             -18.69316       262377.19    
      1660   0.047252237   -18.693201      0             -18.693158      262356.31    
      1670   0.0013641398  -18.693237      0             -18.693236      262515.49    
      1680   0.016637511   -18.69325       0             -18.693235      262631.38    
      1690   0.022732098   -18.693267      0             -18.693247      262002.17    
      1700   0.0052962741  -18.69333       0             -18.693326      262752.67    
      1710   0.055126924   -18.693375      0             -18.693325      262729.12    
      1720   0.0063610102  -18.693406      0             -18.6934        262840.35    
      1730   0.0017617735  -18.693409      0             -18.693407      263006.23    
      1740   0.12666921    -18.593986      0             -18.593872      266127.88    
      1750   3.1666565     -18.596525      0             -18.59366       261929.26    
      1760   0.48782814    -18.599088      0             -18.598646      262210.52    
      1770   0.12492025    -18.599217      0             -18.599104      262808.79    
      1780   0.94918455    -18.599972      0             -18.599114      264157.83    
      1790   0.0075021254  -18.602049      0             -18.602042      263119.63    
      1800   0.25420481    -18.602274      0             -18.602044      265019.01    
      1810   0.16920437    -18.603038      0             -18.602885      265638.76    
      1820   0.092449056   -18.603147      0             -18.603064      265095.13    
      1830   0.00024373708 -18.60333       0             -18.60333       265107.37    
      1840   2.2201135e-05 -18.686878      0             -18.686878      262656.57    
      1850   1.3861823e-06 -18.686878      0             -18.686878      262657.18    
      1860   2.1657062e-08 -18.686878      0             -18.686878      262657.25    
      1870   7.1421636e-08 -18.686878      0             -18.686878      262657.25    
      1880   1.0236257e-10 -18.686878      0             -18.686878      262657.25    
      1890   3.3757874e-10 -18.60333       0             -18.60333       265105.79    
      1899   3.9023234e-10 -18.686878      0             -18.686878      262657.25    
Loop time of 18.5875 on 1 procs for 1899 steps with 8 atoms

99.5% CPU use with 1 MPI tasks x 1 OpenMP threads

Minimization stats:
  Stopping criterion = energy tolerance
  Energy initial, next-to-last, final = 
      2.04307872540548  -18.6868778460188  -18.6868778460185
  Force two-norm initial, final = 107.93097 0.2864397
  Force max component initial, final = 66.311716 0.15270571
  Final line search alpha, max atom move = 0 0
  Iterations, force evaluations = 1899 2061

MPI task timing breakdown:
Section |  min time  |  avg time  |  max time  |%varavg| %total
---------------------------------------------------------------
Pair    | 18.5       | 18.5       | 18.5       |   0.0 | 99.53
Neigh   | 0          | 0          | 0          |   0.0 |  0.00
Comm    | 0.054496   | 0.054496   | 0.054496   |   0.0 |  0.29
Output  | 0.0058467  | 0.0058467  | 0.0058467  |   0.0 |  0.03
Modify  | 0          | 0          | 0          |   0.0 |  0.00
Other   |            | 0.02675    |            |       |  0.14

Nlocal:              8 ave           8 max           8 min
Histogram: 1 0 0 0 0 0 0 0 0 0
Nghost:           2960 ave        2960 max        2960 min
Histogram: 1 0 0 0 0 0 0 0 0 0
Neighs:             62 ave          62 max          62 min
Histogram: 1 0 0 0 0 0 0 0 0 0
FullNghs:         6516 ave        6516 max        6516 min
Histogram: 1 0 0 0 0 0 0 0 0 0

Total # of neighbors = 6516
Ave neighs/atom = 814.5
Neighbor list builds = 0
Dangerous builds = 0
write_data ./StructureDump/sample.6.dat 
System init for write_data ...
variable etot equal etotal
variable ptot equal press
variable pairp equal epair
variable numat equal atoms
run 0
WARNING: No fixes with time integration, atoms won't move (src/verlet.cpp:60)
Per MPI rank memory allocation (min/avg/max) = 4.014 | 4.014 | 4.014 Mbytes
   Step          Temp          E_pair         E_mol          TotEng         Press     
      1899   3.9023234e-10 -18.686878      0             -18.686878      166679.13    
Loop time of 4.2808e-05 on 1 procs for 0 steps with 8 atoms

175.2% CPU use with 1 MPI tasks x 1 OpenMP threads

MPI task timing breakdown:
Section |  min time  |  avg time  |  max time  |%varavg| %total
---------------------------------------------------------------
Pair    | 0          | 0          | 0          |   0.0 |  0.00
Neigh   | 0          | 0          | 0          |   0.0 |  0.00
Comm    | 0          | 0          | 0          |   0.0 |  0.00
Output  | 0          | 0          | 0          |   0.0 |  0.00
Modify  | 0          | 0          | 0          |   0.0 |  0.00
Other   |            | 4.281e-05  |            |       |100.00

Nlocal:              8 ave           8 max           8 min
Histogram: 1 0 0 0 0 0 0 0 0 0
Nghost:           2953 ave        2953 max        2953 min
Histogram: 1 0 0 0 0 0 0 0 0 0
Neighs:             59 ave          59 max          59 min
Histogram: 1 0 0 0 0 0 0 0 0 0
FullNghs:         6494 ave        6494 max        6494 min
Histogram: 1 0 0 0 0 0 0 0 0 0

Total # of neighbors = 6494
Ave neighs/atom = 811.75
Neighbor list builds = 0
Dangerous builds = 0
print "${etot} ${pairp} ${ptot} ${numat} " append Summary.dat screen no
Total wall time: 0:00:19
