mass 1 51.996100
pair_style hybrid/overlay soft 1.650 mliap model mliappy LATER descriptor ace coupling_coefficients.yace
Loading python model deferred.
pair_coeff * * soft 100.0
pair_coeff * * mliap   Cr

thermo 10
velocity all create 0.0001 4928459 dist gaussian
Loading python model complete.
min_style  fire
min_modify integrator eulerexplicit tmax 10.0 tmin 0.0 delaystep 5 dtgrow 1.1 dtshrink 0.5 alpha0 0.1 alphashrink 0.99 vdfmax 100000 halfstepback no initialdelay no
minimize 1e-12 1e-12 10000 100000
Neighbor list info ...
  update: every = 1 steps, delay = 0 steps, check = yes
  max neighbors/atom: 2000, page size: 100000
  master list distance cutoff = 13.209389
  ghost atom cutoff = 13.209389
  binsize = 6.6046944, bins = 3 3 1
  2 neighbor lists, perpetual/occasional/extra = 2 0 0
  (1) pair soft, perpetual, half/full trim from (2)
      attributes: half, newton on, cut 3.65
      pair build: halffull/trim/newton/tri
      stencil: none
      bin: none
  (2) pair mliap, perpetual
      attributes: full, newton on
      pair build: full/bin/atomonly
      stencil: full/bin/3d
      bin: standard
  Parameters for fire:
    dmax  delaystep dtgrow dtshrink alpha0 alphashrink tmax tmin   integrator   halfstepback   abcfire  
     0.1      5      1.1     0.5     0.1      0.99      10   0   eulerexplicit       no          no     
Per MPI rank memory allocation (min/avg/max) = 4.114 | 4.114 | 4.114 Mbytes
   Step          Temp          E_pair         E_mol          TotEng         Press     
         0   0             -5.8214622      0             -5.8214622      171203.21    
        10   4.8677101     -5.824851       0             -5.8210758      171093.85    
        20   51.698858     -5.9304261      0             -5.8903305      168308.16    
        30   312.44977     -6.1206384      0             -5.8783146      161036.69    
        40   3.7612537     -6.2163315      0             -6.2134144      152886.02    
        50   14.212244     -6.2354747      0             -6.2244522      157438.17    
        60   2.8816761     -6.2373643      0             -6.2351294      151447.44    
        70   20.284755     -6.2510962      0             -6.2353642      150973.99    
        80   150.50344     -6.2749391      0             -6.1582145      149487.89    
        90   5.289898      -6.517693       0             -6.5135904      132075.65    
       100   132.55758     -6.5926269      0             -6.4898204      157185.28    
       110   4.0635716     -6.6090298      0             -6.6058782      122118.5     
       120   63.411136     -6.6405029      0             -6.5913237      120627.2     
       130   0.44264378    -6.7033496      0             -6.7030063      118099.23    
       140   13.441948     -6.7142444      0             -6.7038193      116063.42    
       150   0.16945443    -6.7332983      0             -6.7331669      115480.78    
       160   6.6466283     -6.7379678      0             -6.7328129      125090.64    
       170   37.343994     -6.7561266      0             -6.727164       141411.12    
       180   3.6908887     -6.7648573      0             -6.7619948      114117.15    
       190   0.0075635864  -6.7727763      0             -6.7727705      114723.18    
       200   0.90719379    -6.7734111      0             -6.7727075      118702.82    
       210   7.1609959     -6.7781899      0             -6.7726361      119335.05    
       220   46.606684     -6.7898545      0             -6.7537082      140809.78    
       230   4.2914996     -6.800616       0             -6.7972877      116081       
       240   14.653432     -6.8104151      0             -6.7990504      111605.06    
       250   1.9902672     -6.815221       0             -6.8136775      116282.12    
       260   0.89151598    -6.816137       0             -6.8154455      113535.83    
       270   5.2985736     -6.8161602      0             -6.8120508      117993.9     
       280   12.133695     -6.8239255      0             -6.8145151      109135.27    
       290   3.7161042     -6.8261751      0             -6.823293       127850.67    
       300   0.055890367   -6.8274156      0             -6.8273722      110644.71    
       310   0.68326112    -6.8279113      0             -6.8273814      117866.24    
       320   5.0554819     -6.8311231      0             -6.8272022      120350.11    
       330   1.2341764     -6.8346784      0             -6.8337212      121767.06    
       340   3.6003727     -6.8393441      0             -6.8365518      116174.31    
       350   0.0065213696  -6.8397334      0             -6.8397283      118881.05    
       360   0.55258662    -6.8401241      0             -6.8396955      112912.64    
       370   3.8442889     -6.8427189      0             -6.8397374      115203.67    
       380   0.03993098    -6.8470187      0             -6.8469877      107386.01    
       390   0.054582576   -6.8480103      0             -6.847968       117987.36    
       400   0.71644674    -6.8485317      0             -6.847976       111599.36    
       410   5.2767607     -6.7640181      0             -6.7599256      110071.28    
       420   0.21347223    -6.7673373      0             -6.7671718      109875.76    
       430   0.16608535    -6.7679806      0             -6.7678518      118993.32    
       440   1.0616453     -6.7687412      0             -6.7679178      111819.75    
       450   7.295709      -6.7735577      0             -6.7678994      109732       
       460   0.58770363    -6.7752946      0             -6.7748388      112886.27    
       470   2.2292182     -6.7765908      0             -6.7748619      109610.01    
       480   0.041714214   -6.7788372      0             -6.7788049      111154.29    
       490   0.79418509    -6.7794336      0             -6.7788177      117878.12    
       500   7.9305496     -6.7837866      0             -6.7776359      117090.61    
       510   0.65955801    -6.87266        0             -6.8721485      115840.38    
       520   0.17397986    -6.8728478      0             -6.8727129      113056.56    
       530   1.5155565     -6.873855       0             -6.8726796      113804.06    
       540   9.8455108     -6.880188       0             -6.8725522      105631       
       550   1.8388913     -6.8849857      0             -6.8835596      111643.62    
       560   0.32239644    -6.8852596      0             -6.8850096      113259.19    
       570   2.5586981     -6.8870016      0             -6.8850172      115884.91    
       580   0.22005269    -6.8020692      0             -6.8018985      108074.54    
       590   2.876208      -6.8057178      0             -6.8034871      111352.51    
       600   0.32775965    -6.805945       0             -6.8056908      114439.06    
       610   2.8094264     -6.8994714      0             -6.8972925      109866.97    
       620   0.019143137   -6.9033149      0             -6.9033         117339.74    
       630   1.0142736     -6.9040786      0             -6.9032919      109297.83    
       640   0.92363893    -6.9069436      0             -6.9062273      108972.16    
       650   0.50070277    -6.9073878      0             -6.9069994      111878.26    
       660   2.8851405     -6.9093421      0             -6.9071045      116806.14    
       670   0.72439653    -6.913523       0             -6.9129611      107618.29    
       680   0.89927953    -6.9161258      0             -6.9154283      103032.92    
       690   1.0647106     -6.9177713      0             -6.9169455      109930.91    
       700   0.40969911    -6.9180268      0             -6.9177091      111680.62    
       710   2.1067329     -6.9193953      0             -6.9177614      107992.65    
       720   2.1521736     -6.9241406      0             -6.9224715      106393.16    
       730   0.57848914    -6.9247968      0             -6.9243481      109773.24    
       740   5.1719266     -6.9282992      0             -6.9242881      104844.27    
       750   0.48036103    -6.931038       0             -6.9306654      108054.81    
       760   2.2854665     -6.9323176      0             -6.9305451      105125.27    
       770   0.018091079   -6.9347744      0             -6.9347604      110094.97    
       780   0.801975      -6.935341       0             -6.934719       112296.5     
       790   6.5152826     -6.842418       0             -6.837365       111086.56    
       800   344.59356     -5.7975035      0             -5.5302502      185872.5     
       810   0.95950958    -6.6925035      0             -6.6917593      150138.72    
       820   112.73798     -6.7722969      0             -6.6848617      147816.22    
       830   358.78831     -7.005929       0             -6.7276668      138302.84    
       840   119.17866     -6.5162272      0             -6.4237969      154622.08    
       850   672.8377      -7.0822849      0             -6.5604583      110218.88    
       860   2.2882446     -7.2470212      0             -7.2452465      65087.65     
       870   107.64035     -7.2682829      0             -7.1848013      57962.898    
       880   2.8539432     -7.3268723      0             -7.3246589      45248.806    
       890   50.787174     -7.3609557      0             -7.3215672      42198        
       900   0.84646938    -7.4783187      0             -7.4776622      29856.551    
       910   30.647669     -7.5022998      0             -7.4785307      27404.352    
       920   249.46291     -7.6235266      0             -7.4300529      54948.398    
       930   469.80529     -7.7259154      0             -7.3615528      8781.0007    
       940   19.394871     -7.7394185      0             -7.7243766      3109.0678    
       950   7.5874146     -7.7486725      0             -7.742788       2098.1541    
       960   77.882896     -7.7819977      0             -7.7215948     -117.8432     
       970   3.6762877     -7.8329805      0             -7.8301293      30816.094    
       980   2.4807463     -7.850068       0             -7.8481441     -2574.9941    
       990   19.530502     -7.8623915      0             -7.8472444      17353.559    
      1000   0.36598088    -7.878693       0             -7.8784092      3086.5017    
      1010   6.6524332     -7.8833525      0             -7.8781932      1078.3386    
      1020   1.6593363     -7.9086407      0             -7.9073537      1730.6862    
      1030   4.2950168     -7.9157392      0             -7.9124081     -2898.9824    
      1040   23.085856     -7.9285659      0             -7.9106614     -4210.8803    
      1050   0.97254276    -7.9336917      0             -7.9329375     -3356.5253    
      1060   7.5267369     -7.9387844      0             -7.932947      -2148.4805    
      1070   1.285526      -7.9617625      0             -7.9607655      1733.2606    
      1080   2.7811172     -7.9685216      0             -7.9663647     -7093.9682    
      1090   22.088521     -7.9827411      0             -7.9656101     -11220.71     
      1100   292.3614      -8.2310433      0             -8.0042992     -103512.77    
      1110   168.92633     -8.3897915      0             -8.2587788     -159144.5     
      1120   129.66799     -8.7760919      0             -8.6755265     -63263.767    
      1130   433.4971      -9.029783       0             -8.6935796     -112069.78    
      1140   119.29206     -9.2431553      0             -9.150637      -104614.42    
      1150   13.172718     -9.2778238      0             -9.2676075     -130645.38    
      1160   117.88603     -9.3558509      0             -9.2644231     -144491.72    
      1170   30.151083     -9.6175508      0             -9.5941668     -100248.12    
      1180   23.864368     -9.6376632      0             -9.6191549     -109278.35    
      1190   168.87531     -9.7473538      0             -9.6163807     -127335.12    
      1200   10.24894      -10.212085      0             -10.204136     -193754.46    
      1210   140.48533     -10.306363      0             -10.197408     -196502.36    
      1220   224.12032     -10.296874      0             -10.123055     -209479.58    
      1230   64.462852     -10.320973      0             -10.270978     -205886.72    
      1240   26.633569     -10.338928      0             -10.318272     -205768.04    
      1250   153.43279     -10.39867       0             -10.279673     -196174.29    
      1260   77.94956      -10.993612      0             -10.933157     -233055.23    
      1270   51.145471     -11.030171      0             -10.990504     -235413.84    
      1280   470.48932     -11.269524      0             -10.904631     -243418.16    
      1290   58.093122     -9.334215       0             -9.2891603     -168232.59    
      1300   15.658778     -9.355369       0             -9.3432247     -172925.07    
      1310   88.551331     -9.5743288      0             -9.5056518     -187484.14    
      1320   20.638873     -9.9306596      0             -9.9146529     -166398.51    
      1330   33.040877     -10.063446      0             -10.037821     -206742.21    
      1340   270.98253     -12.431637      0             -12.221474     -273596.6     
      1350   11.960471     -12.737747      0             -12.728471     -295968.92    
      1360   154.87226     -12.466978      0             -12.346865     -298960.95    
      1370   233.13812     -10.697302      0             -10.516489     -223067.03    
      1380   35.222899     -10.723323      0             -10.696005     -229291.69    
      1390   325.65397     -10.873908      0             -10.621343     -179002.86    
      1400   7.980425      -10.907871      0             -10.901682     -196203.72    
      1410   57.961119     -10.838554      0             -10.793601     -182609.33    
      1420   44.787878     -10.986534      0             -10.951798     -263930.97    
      1430   29.486967     -11.015836      0             -10.992967     -261085.18    
      1440   255.44425     -11.032836      0             -10.834724     -257420.37    
      1450   13.407366     -11.067172      0             -11.056774     -248552.33    
      1460   81.973172     -11.11873       0             -11.055155     -256841.44    
      1470   20.509116     -11.850456      0             -11.83455      -303949.6     
      1480   21.388732     -11.804111      0             -11.787522     -288412.92    
      1490   2.4748029     -11.308607      0             -11.306687     -261821       
      1500   5.8093004     -11.358727      0             -11.354222     -279407.44    
      1510   42.735852     -11.366671      0             -11.333527     -273712.61    
      1520   349.02104     -11.228849      0             -10.958162     -281660.31    
      1530   35.679376     -11.302237      0             -11.274566     -287374.76    
      1540   118.9606      -11.386194      0             -11.293933     -291829.52    
      1550   1.8742096     -11.487109      0             -11.485656     -302572.05    
      1560   43.358329     -11.498689      0             -11.465061     -307480.95    
      1570   377.25672     -11.742614      0             -11.450028     -325055.47    
      1580   16.131014     -11.836213      0             -11.823703     -327449.09    
      1590   151.49733     -11.942459      0             -11.824964     -331708.47    
      1600   109.01867     -12.281094      0             -12.196543     -351287.45    
      1610   58.473138     -12.348291      0             -12.302941     -365132.69    
      1620   46.686121     -12.4988        0             -12.462592     -381699.9     
      1630   41.694649     -12.431624      0             -12.399287     -367645.26    
      1640   172.0506      -12.479357      0             -12.345922     -369145.76    
      1650   2.5960402     -12.697266      0             -12.695253     -385491.49    
      1660   59.778998     -12.741636      0             -12.695274     -391858.71    
      1670   531.83905     -13.338701      0             -12.926228     -428069.32    
      1680   64.43137      -13.255115      0             -13.205145     -440798.39    
      1690   16.601958     -13.276446      0             -13.26357      -428091.39    
      1700   134.25651     -13.385362      0             -13.281238     -425916.79    
      1710   21.011656     -4.2633181      0             -4.2470223     -131912.01    
      1720   36.664262     -4.4145386      0             -4.3861033     -212925.8     
      1730   160.93389     -4.4852274      0             -4.3604134     -256181.06    
      1740   161.10789     -4.5581894      0             -4.4332404     -297369.37    
      1750   50.917986     -4.5663728      0             -4.5268828     -295883.69    
      1760   362.53475     -5.032565       0             -4.7513972     -281377.93    
      1770   2515.462      -6.9834903      0             -5.0325964     -367104.92    
      1780   583.8664      -7.2881721      0             -6.8353482     -254773.36    
      1790   17168.66      -20.214443      0             -6.8991021     -1325310.5    
      1800   12994.496     -27.469872      0             -17.391849     -988810.48    
      1810   54669.177     -58.621372      0             -16.222098     -1370475.3    
      1820   1181.315      -74.939363      0             -74.023181     -2287712.3    
      1830   6629.5457     -85.82224       0             -80.680624     -2840754.6    
      1840   13543.813     -98.930704      0             -88.426652     -2152547.5    
      1850   9371.1281     -114.45189      0             -107.18401     -2292751.6    
      1860   1168.19       -115.20252      0             -114.29651     -2350214.3    
      1870   198.68365     -115.33851      0             -115.18442     -2345162.9    
      1880   1215.5572     -116.13317      0             -115.19043     -2307289.5    
      1890   17165.672     -126.03986      0             -112.72684     -2679646.5    
      1900   376015.61     -482.35012      0             -190.72712     -20503128     
      1910   3709.1005     -542.93286      0             -540.05623     -28483400     
      1920   6763.9535     -570.11699      0             -564.87114     -29623219     
      1930   77.560226     -576.59752      0             -576.53737     -30062992     
      1940   90.742416     -577.73085      0             -577.66047     -30111494     
      1950   744.48168     -578.2948       0             -577.71741     -30181657     
      1960   16.371282     -579.29683      0             -579.28413     -30511980     
      1970   42.777307     -579.24564      0             -579.21247     -30534353     
      1980   200.42198     -579.56886      0             -579.41342     -30572310     
      1990   70.511242     -579.7449       0             -579.69021     -30659389     
      2000   18.642758     -579.75936      0             -579.7449      -30665048     
      2010   94.240807     -580.06831      0             -579.99522     -30710085     
      2020   1.3401065     -580.12544      0             -580.1244      -30749161     
      2030   0.85072141    -580.14002      0             -580.13936     -30753086     
      2040   5.0837926     -580.1438       0             -580.13985     -30754770     
      2050   26.6358       -579.92603      0             -579.90537     -30762094     
      2060   7.904347      -579.93793      0             -579.93179     -30770205     
      2070   0.20906496    -579.94412      0             -579.94396     -30771901     
      2080   2.6691673     -579.94585      0             -579.94378     -30773025     
      2090   18.420051     -579.95771      0             -579.94343     -30781587     
      2100   13.375038     -580.1985       0             -580.18812     -30803445     
      2110   6.6967671     -580.20941      0             -580.20421     -30805442     
      2120   0.11557734    -580.20957      0             -580.20948     -30805416     
      2130   0.62487209    -580.21         0             -580.20952     -30805875     
      2140   0.042078875   -580.21177      0             -580.21173     -30807974     
      2150   0.11143017    -580.21194      0             -580.21186     -30808246     
      2160   0.93578168    -580.21261      0             -580.21189     -30809158     
      2170   0.038687684   -580.21344      0             -580.21341     -30810627     
      2180   0.012063217   -580.21379      0             -580.21378     -30810949     
      2190   0.14775224    -580.21394      0             -580.21382     -30811052     
      2200   1.1112316     -580.21459      0             -580.21373     -30812177     
      2210   0.015470364   -580.21566      0             -580.21565     -30813647     
      2220   0.29469602    -580.21582      0             -580.21559     -30813945     
      2230   1.1911068     -580.21656      0             -580.21564     -30814907     
      2240   0.10857816    -580.21667      0             -580.21659     -30815056     
      2250   1.1822954     -580.21719      0             -580.21627     -30815634     
      2260   0.23018695    -580.2173       0             -580.21712     -30815827     
      2270   0.025836687   -580.21739      0             -580.21737     -30815861     
      2280   0.24095273    -580.21758      0             -580.21739     -30815992     
      2290   0.05523815    -580.21835      0             -580.21831     -30816890     
      2300   0.063164971   -580.21843      0             -580.21838     -30816839     
      2310   0.61720761    -580.21884      0             -580.21836     -30817182     
      2320   0.038106406   -580.21919      0             -580.21916     -30817238     
      2330   0.29699066    -580.21943      0             -580.2192      -30817376     
      2340   0.010306525   -580.21977      0             -580.21976     -30817415     
      2350   0.0056056044  -580.21991      0             -580.21991     -30817551     
      2360   0.074726911   -580.21997      0             -580.21991     -30817543     
      2370   0.60932529    -580.22031      0             -580.21984     -30817682     
      2380   0.018618822   -580.22088      0             -580.22087     -30817905     
      2390   0.21408258    -580.22105      0             -580.22088     -30817964     
      2400   2.3974359     -580.22165      0             -580.21979     -30817972     
      2410   0.099872529   -580.2217       0             -580.22162     -30818107     
      2420   0.15796328    -580.22196      0             -580.22184     -30818156     
      2430   0.037674634   -580.22206      0             -580.22204     -30818128     
      2440   0.40746972    -580.22226      0             -580.22195     -30818180     
      2450   0.003246715   -580.22301      0             -580.22301     -30818237     
      2460   0.17359497    -580.22315      0             -580.22302     -30818301     
      2470   0.099909104   -580.22335      0             -580.22327     -30818285     
      2480   0.057774926   -580.22343      0             -580.22338     -30818362     
      2490   0.44858694    -580.22363      0             -580.22329     -30818442     
      2500   0.058840049   -580.2239       0             -580.22386     -30818476     
      2510   0.014990516   -580.22403      0             -580.22401     -30818383     
      2520   0.10568918    -580.21792      0             -580.21784     -30817454     
      2530   0.84223943    -580.21838      0             -580.21772     -30817409     
      2540   0.034675869   -580.21847      0             -580.21844     -30817499     
      2550   0.25423334    -580.21866      0             -580.21846     -30817553     
      2560   0.00077384912 -580.21914      0             -580.21914     -30817548     
      2570   0.10898204    -580.21918      0             -580.2191      -30817571     
      2580   0.98104686    -580.21981      0             -580.21905     -30817532     
      2590   0.51259523    -580.22033      0             -580.21993     -30817706     
      2600   0.057311854   -580.22037      0             -580.22033     -30817642     
      2610   0.35278195    -580.2206       0             -580.22033     -30817691     
      2620   0.027512383   -580.22075      0             -580.22073     -30817513     
      2630   0.0061375561  -580.22106      0             -580.22106     -30817733     
      2640   0.070646152   -580.2211       0             -580.22104     -30817702     
      2650   0.55265446    -580.22146      0             -580.22103     -30817710     
      2660   0.099376763   -580.22215      0             -580.22208     -30817919     
      2670   0.017045123   -580.22222      0             -580.2222      -30817787     
      2680   0.16781322    -580.22231      0             -580.22218     -30817790     
      2690   1.5680269     -580.22316      0             -580.22194     -30817858     
      2700   0.00058762977 -580.22339      0             -580.22339     -30817908     
      2710   0.049578759   -580.2234       0             -580.22336     -30817856     
      2720   0.3977243     -580.22371      0             -580.2234      -30817861     
      2730   0.024539735   -580.22393      0             -580.22391     -30817830     
      2740   0.0089837252  -580.22407      0             -580.22407     -30817943     
      2750   0.079064892   -580.22416      0             -580.2241      -30817901     
      2760   0.60031542    -580.22454      0             -580.22407     -30817909     
      2770   0.022671811   -580.22503      0             -580.22502     -30818010     
      2780   0.2162647     -580.22526      0             -580.22509     -30818050     
      2790   0.0038115376  -580.22541      0             -580.2254      -30818040     
      2800   0.079562284   -580.22543      0             -580.22537     -30817979     
      2810   0.7270323     -580.22583      0             -580.22527     -30817989     
      2820   0.10373955    -580.226        0             -580.22592     -30818022     
      2830   0.021591678   -580.22607      0             -580.22605     -30818058     
      2840   0.16006362    -580.22613      0             -580.226       -30818064     
      2850   0.050648854   -580.22656      0             -580.22652     -30818133     
      2860   0.045013103   -580.22661      0             -580.22657     -30818100     
      2870   0.41944678    -580.22699      0             -580.22666     -30818135     
      2880   0.006177482   -580.22737      0             -580.22737     -30818134     
      2890   0.17714983    -580.22752      0             -580.22738     -30818141     
      2900   1.3830997     -580.22834      0             -580.22727     -30818028     
      2910   0.0059070639  -580.22906      0             -580.22906     -30818350     
      2920   0.0025731931  -580.22911      0             -580.22911     -30818214     
      2930   0.045606139   -580.22915      0             -580.22911     -30818258     
      2940   0.34772036    -580.22942      0             -580.22915     -30818263     
      2950   0.53274123    -580.23008      0             -580.22967     -30818253     
      2960   0.1153263     -580.23018      0             -580.23009     -30818345     
      2970   0.065683122   -580.23044      0             -580.23038     -30818323     
      2980   0.062785222   -580.23051      0             -580.23046     -30818385     
      2990   0.027096916   -580.23063      0             -580.2306      -30818323     
      3000   0.17136775    -580.23073      0             -580.23059     -30818325     
      3010   0.12365926    -580.23114      0             -580.23105     -30818298     
      3020   0.071461949   -580.23118      0             -580.23112     -30818342     
      3030   0.57778276    -580.23148      0             -580.23103     -30818328     
      3040   0.01706381    -580.23155      0             -580.23154     -30818418     
      3050   0.15421411    -580.23163      0             -580.23151     -30818413     
      3060   0.04410456    -580.23217      0             -580.23214     -30818479     
      3070   0.047567077   -580.23219      0             -580.23215     -30818456     
      3080   0.44054407    -580.2325       0             -580.23216     -30818505     
      3090   0.016758685   -580.23277      0             -580.23275     -30818511     
      3100   0.17776291    -580.23283      0             -580.23269     -30818497     
      3110   0.13884926    -580.23313      0             -580.23302     -30818551     
      3120   0.060675438   -580.23314      0             -580.23309     -30818468     
      3130   0.47398964    -580.23341      0             -580.23305     -30818439     
      3140   0.019029423   -580.23347      0             -580.23345     -30818546     
      3150   0.15165974    -580.23353      0             -580.23341     -30818534     
      3160   0.10935427    -580.23394      0             -580.23386     -30818750     
      3170   0.00021094303 -580.23416      0             -580.23416     -30818588     
      3180   0.028550208   -580.23416      0             -580.23414     -30818568     
      3190   0.25327673    -580.23437      0             -580.23417     -30818593     
      3200   0.088089353   -580.23509      0             -580.23503     -30818587     
      3210   0.072053945   -580.23511      0             -580.23506     -30818620     
      3220   0.7980465     -580.23563      0             -580.23501     -30818711     
      3230   0.21282638    -580.23616      0             -580.23599     -30818724     
      3240   0.033366905   -580.23621      0             -580.23618     -30818707     
      3250   0.26043351    -580.23635      0             -580.23615     -30818690     
      3260   0.12718801    -580.23715      0             -580.23705     -30818809     
      3270   0.081508813   -580.23724      0             -580.23718     -30818800     
      3280   1.3205138     -580.23772      0             -580.2367      -30818706     
      3290   0.098474693   -580.23779      0             -580.23771     -30818798     
      3300   0.032699226   -580.23785      0             -580.23783     -30818809     
      3310   0.20399777    -580.2379       0             -580.23774     -30818787     
      3320   0.37256532    -580.23846      0             -580.23817     -30818835     
      3330   0.0013340669  -580.23852      0             -580.23852     -30818828     
      3340   0.042897361   -580.23856      0             -580.23853     -30818870     
      3350   0.33504108    -580.23873      0             -580.23847     -30818873     
      3360   0.33812386    -580.23948      0             -580.23922     -30818880     
      3370   0.10862559    -580.2395       0             -580.23942     -30818951     
      3380   0.071960053   -580.23978      0             -580.23972     -30818938     
      3390   0.043535165   -580.23977      0             -580.23973     -30818958     
      3400   0.36842287    -580.2401       0             -580.23982     -30818972     
      3410   0.017225693   -580.24034      0             -580.24033     -30819054     
      3420   0.0072987417  -580.24041      0             -580.2404      -30818967     
      3430   0.076412553   -580.2404       0             -580.24034     -30819007     
      3440   0.59704119    -580.24093      0             -580.24047     -30819030     
      3450   0.040084038   -580.24141      0             -580.24138     -30819013     
      3460   0.22039787    -580.24155      0             -580.24138     -30818974     
      3470   0.073341218   -580.24173      0             -580.24167     -30819018     
      3480   0.10868439    -580.24184      0             -580.24176     -30819043     
      3490   0.047915375   -580.24191      0             -580.24187     -30819102     
      3500   0.29073829    -580.24216      0             -580.24193     -30819074     
      3510   0.0040106575  -580.24253      0             -580.24252     -30819202     
      3520   0.0057869857  -580.24258      0             -580.24257     -30819091     
      3530   0.060795989   -580.24263      0             -580.24258     -30819164     
      3540   0.42127125    -580.24289      0             -580.24256     -30819232     
      3550   0.078413667   -580.24318      0             -580.24312     -30819261     
      3560   0.016202094   -580.24326      0             -580.24324     -30819150     
      3570   0.099696078   -580.24334      0             -580.24326     -30819200     
      3580   0.81926008    -580.24378      0             -580.24315     -30819165     
      3590   0.23795286    -580.24389      0             -580.2437      -30819256     
      3600   0.039590353   -580.24394      0             -580.24391     -30819207     
      3610   0.17253157    -580.24397      0             -580.24383     -30819213     
      3620   0.01785953    -580.24442      0             -580.24441     -30819239     
      3630   0.45201402    -580.24465      0             -580.2443      -30819231     
      3640   0.027375109   -580.24483      0             -580.24481     -30819273     
      3650   0.19705229    -580.24492      0             -580.24476     -30819255     
      3660   0.75389167    -580.24546      0             -580.24487     -30819325     
      3670   0.0020648822  -580.24552      0             -580.24552     -30819315     
      3680   0.044811324   -580.24556      0             -580.24553     -30819347     
      3690   0.3839913     -580.24578      0             -580.24548     -30819370     
      3700   0.0010791012  -580.24638      0             -580.24638     -30819380     
      3710   0.12614872    -580.24654      0             -580.24644     -30819406     
      3720   1.336045      -580.24709      0             -580.24605     -30819267     
      3730   0.00057912358 -580.24747      0             -580.24747     -30819505     
      3740   0.048865638   -580.24751      0             -580.24747     -30819455     
      3750   0.40246447    -580.24774      0             -580.24743     -30819450     
      3760   0.053102803   -580.24807      0             -580.24803     -30819394     
      3770   0.0063149507  -580.24823      0             -580.24822     -30819531     
      3780   0.082252569   -580.24817      0             -580.24811     -30819518     
      3790   0.67706082    -580.24865      0             -580.24813     -30819569     
      3800   0.43452676    -580.24787      0             -580.24754     -30819050     
      3810   0.022300871   -580.24978      0             -580.24976     -30819638     
      3820   0.21784896    -580.24991      0             -580.24974     -30819667     
      3830   0.35107185    -580.25022      0             -580.24995     -30819404     
      3840   0.0036607688  -580.25074      0             -580.25073     -30819685     
      3850   0.064212319   -580.25087      0             -580.25082     -30819729     
      3860   0.51813105    -580.25122      0             -580.25081     -30819774     
      3870   0.24458713    -580.25159      0             -580.2514      -30819579     
      3880   0.037350031   -580.25193      0             -580.2519      -30819806     
      3890   0.17911596    -580.252        0             -580.25186     -30819824     
      3900   0.32070985    -580.25241      0             -580.25216     -30819943     
      3910   0.00057158546 -580.25244      0             -580.25244     -30819879     
      3920   0.047514139   -580.25254      0             -580.2525      -30819823     
      3930   0.25746131    -580.25279      0             -580.25259     -30819880     
      3940   0.066306202   -580.2531       0             -580.25305     -30819830     
      3950   0.13496886    -580.25325      0             -580.25315     -30819861     
      3960   0.036798089   -580.25324      0             -580.25321     -30819896     
      3970   0.33119278    -580.25349      0             -580.25323     -30819906     
      3980   1.2027147     -580.25412      0             -580.25319     -30819852     
      3990   0.011894892   -580.25426      0             -580.25425     -30819997     
      4000   0.079478517   -580.2543       0             -580.25424     -30819931     
      4010   0.63403246    -580.25473      0             -580.25424     -30819914     
      4020   0.033274991   -580.2548       0             -580.25477     -30819987     
      4030   0.20105728    -580.25501      0             -580.25486     -30819957     
      4040   0.0024686485  -580.25515      0             -580.25515     -30819997     
      4050   0.067037585   -580.25513      0             -580.25508     -30820049     
      4060   0.569098      -580.2555       0             -580.25506     -30820093     
      4070   0.022398326   -580.25568      0             -580.25566     -30820076     
      4080   0.2028246     -580.25581      0             -580.25565     -30820111     
      4090   0.10535026    -580.25624      0             -580.25616     -30820068     
      4100   0.068761231   -580.25625      0             -580.2562      -30820145     
      4110   0.74277455    -580.25667      0             -580.2561      -30820219     
      4120   0.11669246    -580.25684      0             -580.25675     -30820172     
      4130   0.027789783   -580.25691      0             -580.25688     -30820142     
      4140   0.16269975    -580.25697      0             -580.25685     -30820142     
      4150   0.12591503    -580.25733      0             -580.25724     -30820116     
      4160   0.06836436    -580.25742      0             -580.25736     -30820164     
      4170   0.54262227    -580.25767      0             -580.25725     -30820161     
      4180   0.21439585    -580.25784      0             -580.25768     -30820219     
      4190   0.0033365162  -580.25794      0             -580.25793     -30820256     
      4200   0.056733807   -580.25795      0             -580.25791     -30820215     
      4210   0.44781562    -580.25827      0             -580.25792     -30820204     
      4220   0.018001346   -580.25881      0             -580.25879     -30820354     
      4230   0.22934429    -580.25896      0             -580.25878     -30820350     
      4240   0.082274009   -580.25892      0             -580.25886     -30820278     
      4250   0.06787546    -580.25925      0             -580.25919     -30820304     
      4260   0.040846259   -580.25931      0             -580.25928     -30820330     
      4270   0.26039426    -580.25947      0             -580.25927     -30820381     
      4280   0.0024297856  -580.25977      0             -580.25977     -30820324     
      4290   0.092386029   -580.25986      0             -580.25979     -30820424     
      4300   0.09429877    -580.26017      0             -580.2601      -30820438     
      4310   0.047738847   -580.26016      0             -580.26012     -30820411     
      4320   0.25094415    -580.26037      0             -580.26018     -30820371     
      4330   0.00080008088 -580.0205       0             -580.0205      -30810833     
      4340   0.058999303   -580.02057      0             -580.02052     -30810814     
      4350   0.66789625    -580.02081      0             -580.02029     -30811122     
      4360   0.063061044   -580.02092      0             -580.02087     -30811066     
      4370   0.017164866   -580.02088      0             -580.02087     -30811072     
      4380   0.12376619    -580.02096      0             -580.02086     -30811133     
      4390   0.098684692   -580.02127      0             -580.02119     -30811276     
      4400   0.037425859   -580.02131      0             -580.02128     -30811304     
      4410   0.27563445    -580.017        0             -580.01679     -30810812     
      4420   0.010131791   -580.01722      0             -580.01721     -30810691     
      4430   0.13881393    -580.01735      0             -580.01724     -30810675     
      4440   0.14184773    -580.01766      0             -580.01755     -30810501     
      4450   0.0022103832  -580.0177       0             -580.01769     -30810584     
      4460   0.034729525   -580.01767      0             -580.01765     -30810537     
      4470   0.27057223    -580.01787      0             -580.01766     -30810467     
      4480   0.012135929   -580.01805      0             -580.01805     -30810436     
      4490   0.10612408    -580.01809      0             -580.018       -30810411     
      4500   0.042561532   -580.0183       0             -580.01826     -30809996     
      4510   0.032958257   -580.01833      0             -580.0183      -30809644     
      4520   0.0097983825  -580.01839      0             -580.01839     -30809540     
      4530   0.069658268   -580.01833      0             -580.01828     -30809065     
      4540   0.0238882     -580.01843      0             -580.01841     -30807047     
      4550   2.5316797e-05 -580.01851      0             -580.01851     -30806982     
      4560   0.0023361426  -580.01847      0             -580.01847     -30806962     
      4570   0.013172223   -580.01845      0             -580.01844     -30806653     
      4580   6.9715569e-05 -580.01843      0             -580.01843     -30806236     
      4590   0.0020091302  -580.01853      0             -580.01853     -30806202     
      4600   0.0038138403  -580.01847      0             -580.01847     -30806165     
      4610   0.00071600287 -580.01849      0             -580.01849     -30806191     
      4620   0.0065876795  -580.01851      0             -580.01851     -30806190     
      4630   0.00015778311 -580.01849      0             -580.01849     -30806161     
      4640   0.00017631886 -580.01842      0             -580.01842     -30806191     
      4650   0.0014072686  -580.01846      0             -580.01846     -30806177     
      4660   0.009651914   -580.0185       0             -580.0185      -30806165     
      4670   0.0005776996  -580.01853      0             -580.01853     -30806177     
      4680   0.0040491154  -580.01859      0             -580.01859     -30806175     
      4690   0.0013767352  -580.01856      0             -580.01856     -30806171     
      4700   0.0013955474  -580.01851      0             -580.01851     -30806180     
      4710   0.0076746384  -580.01851      0             -580.0185      -30806193     
      4720   0.00045669938 -580.01854      0             -580.01853     -30806184     
      4730   0.0034150488  -580.01855      0             -580.01855     -30806178     
      4740   0.005701647   -580.01856      0             -580.01855     -30806237     
      4750   0.0010189463  -580.01859      0             -580.01859     -30806176     
      4760   0.0104791     -580.01856      0             -580.01855     -30806183     
      4770   0.0011740279  -580.01863      0             -580.01863     -30806177     
      4780   0.00032913619 -580.01854      0             -580.01854     -30806166     
      4790   0.0027370852  -580.01851      0             -580.0185      -30806168     
      4800   0.00044218253 -580.01855      0             -580.01855     -30806147     
      4810   0.0011290206  -580.01854      0             -580.01854     -30806164     
      4820   0.0072537369  -580.01856      0             -580.01855     -30806171     
      4830   0.0029198041  -580.01852      0             -580.01852     -30806173     
      4840   0.0013759933  -580.01854      0             -580.01854     -30806176     
      4850   0.0011663813  -580.01861      0             -580.01861     -30806200     
      4860   0.0010186231  -580.01858      0             -580.01858     -30806164     
      4870   0.0053435684  -580.01862      0             -580.01862     -30806151     
      4880   0.0001013782  -580.0186       0             -580.0186      -30806152     
      4890   0.0014660786  -580.01863      0             -580.01863     -30806171     
      4900   0.01042208    -580.0186       0             -580.01859     -30806189     
      4910   0.0050735229  -580.0186       0             -580.0186      -30806179     
      4920   0.00025891706 -580.01864      0             -580.01864     -30806159     
      4930   0.0027484903  -580.01862      0             -580.01862     -30806160     
      4940   0.019814707   -580.01863      0             -580.01861     -30806148     
      4950   0.051553511   -580.01867      0             -580.01863     -30806203     
      4960   0.00070903226 -580.01855      0             -580.01855     -30806160     
      4970   0.0073605735  -580.01864      0             -580.01863     -30806160     
      4980   0.03814387    -580.01866      0             -580.01863     -30806128     
      4990   0.00018397753 -580.01867      0             -580.01867     -30806161     
      5000   0.002193721   -580.01867      0             -580.01867     -30806156     
      5010   0.01620787    -580.01871      0             -580.0187      -30806178     
      5020   0.00089551222 -580.01866      0             -580.01866     -30806162     
      5030   0.0048518452  -580.0187       0             -580.0187      -30806176     
      5040   0.00019999028 -580.01872      0             -580.01872     -30806165     
      5050   0.002467809   -580.01864      0             -580.01864     -30806155     
      5060   0.00013034003 -580.01866      0             -580.01866     -30806167     
      5070   0.00025381889 -580.01874      0             -580.01874     -30806166     
      5080   0.0043785485  -580.01875      0             -580.01875     -30806169     
      5090   6.0576227e-05 -580.01869      0             -580.01869     -30806164     
      5100   0.0017943718  -580.01871      0             -580.01871     -30806154     
      5110   5.8838027     -578.83598      0             -578.83141     -30663864     
      5120   0.44487888    -580.01848      0             -580.01814     -30805701     
      5130   0.10500619    -580.01864      0             -580.01856     -30806259     
      5140   0.27414296    -578.83716      0             -578.83695     -30664367     
      5150   0.023662251   -578.83752      0             -578.8375      -30664273     
      5160   0.00094961057 -578.83759      0             -578.83758     -30664269     
      5170   7.464557e-08  -580.01871      0             -580.01871     -30806395     
      5180   4.1980386e-08 -580.01871      0             -580.01871     -30806395     
      5190   1.7072842e-09 -580.01871      0             -580.01871     -30806395     
      5200   8.958022e-08  -578.83756      0             -578.83756     -30664269     
      5210   4.2203837e-09 -580.01871      0             -580.01871     -30806395     
Loop time of 45.9964 on 1 procs for 5210 steps with 7 atoms

99.5% CPU use with 1 MPI tasks x 1 OpenMP threads

Minimization stats:
  Stopping criterion = energy tolerance
  Energy initial, next-to-last, final = 
     -5.82146215438843  -580.018713629101   -580.01871362895
  Force two-norm initial, final = 1.1503201 0.19622326
  Force max component initial, final = 0.67808966 0.13527016
  Final line search alpha, max atom move = 0 0
  Iterations, force evaluations = 5210 5637

MPI task timing breakdown:
Section |  min time  |  avg time  |  max time  |%varavg| %total
---------------------------------------------------------------
Pair    | 45.718     | 45.718     | 45.718     |   0.0 | 99.39
Neigh   | 0.0011243  | 0.0011243  | 0.0011243  |   0.0 |  0.00
Comm    | 0.18893    | 0.18893    | 0.18893    |   0.0 |  0.41
Output  | 0.015748   | 0.015748   | 0.015748   |   0.0 |  0.03
Modify  | 0          | 0          | 0          |   0.0 |  0.00
Other   |            | 0.07273    |            |       |  0.16

Nlocal:              7 ave           7 max           7 min
Histogram: 1 0 0 0 0 0 0 0 0 0
Nghost:           3767 ave        3767 max        3767 min
Histogram: 1 0 0 0 0 0 0 0 0 0
Neighs:            106 ave         106 max         106 min
Histogram: 1 0 0 0 0 0 0 0 0 0
FullNghs:         5542 ave        5542 max        5542 min
Histogram: 1 0 0 0 0 0 0 0 0 0

Total # of neighbors = 5542
Ave neighs/atom = 791.71429
Neighbor list builds = 8
Dangerous builds = 0
write_data ./StructureDump/sample.5.dat 
System init for write_data ...
variable etot equal etotal
variable ptot equal press
variable pairp equal epair
variable numat equal atoms
run 0
WARNING: No fixes with time integration, atoms won't move (src/verlet.cpp:60)
Per MPI rank memory allocation (min/avg/max) = 4.124 | 4.124 | 4.124 Mbytes
   Step          Temp          E_pair         E_mol          TotEng         Press     
      5210   4.2203837e-09 -580.01871      0             -580.01871     -25413868     
Loop time of 7.2289e-05 on 1 procs for 0 steps with 7 atoms

171.5% CPU use with 1 MPI tasks x 1 OpenMP threads

MPI task timing breakdown:
Section |  min time  |  avg time  |  max time  |%varavg| %total
---------------------------------------------------------------
Pair    | 0          | 0          | 0          |   0.0 |  0.00
Neigh   | 0          | 0          | 0          |   0.0 |  0.00
Comm    | 0          | 0          | 0          |   0.0 |  0.00
Output  | 0          | 0          | 0          |   0.0 |  0.00
Modify  | 0          | 0          | 0          |   0.0 |  0.00
Other   |            | 7.229e-05  |            |       |100.00

Nlocal:              7 ave           7 max           7 min
Histogram: 1 0 0 0 0 0 0 0 0 0
Nghost:           3722 ave        3722 max        3722 min
Histogram: 1 0 0 0 0 0 0 0 0 0
Neighs:            105 ave         105 max         105 min
Histogram: 1 0 0 0 0 0 0 0 0 0
FullNghs:         5606 ave        5606 max        5606 min
Histogram: 1 0 0 0 0 0 0 0 0 0

Total # of neighbors = 5606
Ave neighs/atom = 800.85714
Neighbor list builds = 0
Dangerous builds = 0
print "${etot} ${pairp} ${ptot} ${numat} " append Summary.dat screen no
Total wall time: 0:00:46
