mass 1 51.996100
pair_style hybrid/overlay soft 1.650 mliap model mliappy LATER descriptor ace coupling_coefficients.yace
Loading python model deferred.
pair_coeff * * soft 100.0
pair_coeff * * mliap   Cr

thermo 10
velocity all create 0.0001 4928459 dist gaussian
Loading python model complete.
min_style  fire
min_modify integrator eulerexplicit tmax 10.0 tmin 0.0 delaystep 5 dtgrow 1.1 dtshrink 0.5 alpha0 0.1 alphashrink 0.99 vdfmax 100000 halfstepback no initialdelay no
minimize 1e-12 1e-12 10000 100000
Neighbor list info ...
  update: every = 1 steps, delay = 0 steps, check = yes
  max neighbors/atom: 2000, page size: 100000
  master list distance cutoff = 13.209389
  ghost atom cutoff = 13.209389
  binsize = 6.6046944, bins = 2 1 1
  2 neighbor lists, perpetual/occasional/extra = 2 0 0
  (1) pair soft, perpetual, half/full trim from (2)
      attributes: half, newton on, cut 3.65
      pair build: halffull/trim/newton
      stencil: none
      bin: none
  (2) pair mliap, perpetual
      attributes: full, newton on
      pair build: full/bin/atomonly
      stencil: full/bin/3d
      bin: standard
  Parameters for fire:
    dmax  delaystep dtgrow dtshrink alpha0 alphashrink tmax tmin   integrator   halfstepback   abcfire  
     0.1      5      1.1     0.5     0.1      0.99      10   0   eulerexplicit       no          no     
Per MPI rank memory allocation (min/avg/max) = 3.896 | 3.896 | 3.896 Mbytes
   Step          Temp          E_pair         E_mol          TotEng         Press     
         0   0             -5.664935       0             -5.664935       502871.23    
        10   3582.5044     -7.7906065      0             -5.4752313      49294.776    
        20   105.55551     -8.5316262      0             -8.4634056      41533.009    
        30   781.91037     -8.7014027      0             -8.1960535      25658.655    
        40   826.97587     -10.208591      0             -9.6741161     -24838.787    
        50   474.20901     -10.695878      0             -10.389396     -230274.65    
        60   102.36889     -11.340964      0             -11.274802     -118657.11    
        70   145.62115     -11.521473      0             -11.427358     -109343.22    
        80   25.029727     -11.586042      0             -11.569865     -124662.72    
        90   223.2101      -12.16706       0             -12.022799     -91593.589    
       100   1302.488      -12.230702      0             -11.388903      49010.813    
       110   201.08653     -11.749311      0             -11.619349     -223507.37    
       120   134.74665     -12.319726      0             -12.232639     -92668.737    
       130   674.43861     -13.580887      0             -13.144997     -60678.238    
       140   686.909       -14.101122      0             -13.657172      14623.869    
       150   198.30558     -14.027162      0             -13.898997     -18477.468    
       160   1266.2122     -14.755624      0             -13.93727      -133387.69    
       170   20.806405     -16.589467      0             -16.57602      -267683.22    
       180   1219.2063     -17.312884      0             -16.52491      -142109.77    
       190   804.66855     -18.150158      0             -17.6301        80605.576    
       200   301.799       -18.348453      0             -18.1534        66790.299    
       210   1457.4449     -19.013008      0             -18.07106       410149.01    
       220   944.57828     -19.703941      0             -19.093459      206666.34    
       230   296.46729     -19.88188       0             -19.690273      282032.29    
       240   2929.8802     -22.080968      0             -20.187384      48282.269    
       250   1444.8157     -24.030456      0             -23.096671     -12141.403    
       260   127.4938      -24.152443      0             -24.070044      30602.885    
       270   524.23188     -24.742619      0             -24.403808      184965.03    
       280   711.91228     -25.862263      0             -25.402153      104921.67    
       290   261.95261     -26.001692      0             -25.832392      100571.73    
       300   2283.9855     -27.016798      0             -25.540656      27944.764    
       310   984.54768     -28.662026      0             -28.025712     -165979.36    
       320   232.56999     -29.406201      0             -29.255891     -164886.25    
       330   696.01394     -29.770346      0             -29.320512     -46926.888    
       340   847.60224     -30.764134      0             -30.216329     -172753.59    
       350   281.64358     -31.061226      0             -30.8792       -180336.17    
       360   1712.5939     -32.036299      0             -30.929448     -237114.78    
       370   4.461507      -32.883201      0             -32.880318     -302017.27    
       380   146.59987     -33.197029      0             -33.102281     -152801.03    
       390   41.597258     -33.260756      0             -33.233872     -176068.24    
       400   200.33071     -33.346292      0             -33.216818     -406682.14    
       410   3.1407597     -33.178026      0             -33.175996     -444544.78    
       420   19.618121     -33.188938      0             -33.176259     -489498.34    
       430   0.031447412   -33.197079      0             -33.197059     -473582.34    
       440   2.469715      -33.198547      0             -33.196951     -483588.67    
       450   8.7533629     -33.204694      0             -33.199037     -470008.88    
       460   0.37719948    -33.216922      0             -33.216678     -514995.68    
       470   0.6886058     -33.219869      0             -33.219424     -495298.68    
       480   4.4426491     -33.222436      0             -33.219564     -486122.29    
       490   40.196708     -33.236969      0             -33.21099      -494894.48    
       500   4.6205235     -33.242418      0             -33.239432     -492970.55    
       510   1.7752221     -33.274755      0             -33.273607     -498734.03    
       520   9.6874928     -33.279873      0             -33.273612     -498659.72    
       530   18.214489     -33.297935      0             -33.286163     -504356.61    
       540   41.287725     -30.58107       0             -30.554386     -354770.32    
       550   15.502383     -31.05188       0             -31.041861     -419936.45    
       560   1.9058774     -33.289363      0             -33.288131     -601795.69    
       570   1.6591859     -31.072279      0             -31.071207     -425974.1     
       580   14.631691     -31.080661      0             -31.071205     -444227.13    
       590   118.11436     -33.334506      0             -33.258168     -515059.52    
       600   36.1626       -33.350862      0             -33.32749      -522699.74    
       610   1.5412993     -33.381469      0             -33.380473     -498327.12    
       620   17.437376     -33.39203       0             -33.38076      -519205.56    
       630   42.604592     -31.172598      0             -31.145062     -418932.23    
       640   12.75637      -33.392972      0             -33.384727     -612802.05    
       650   4.9798373     -33.41677       0             -33.413552     -567594.79    
       660   29.348323     -33.432985      0             -33.414017     -519544.74    
       670   8.8036941     -33.494771      0             -33.489081     -537287.59    
       680   22.248925     -33.521121      0             -33.506741     -526550.71    
       690   6.6989154     -33.524941      0             -33.520611     -527798.75    
       700   52.517909     -33.554417      0             -33.520475     -534279.38    
       710   29.599646     -33.70463       0             -33.6855       -570150.81    
       720   24.952419     -33.727195      0             -33.711068     -559011.83    
       730   12.73122      -33.848668      0             -33.840439     -561095.8     
       740   15.641882     -33.86735       0             -33.85724      -559836.75    
       750   106.19245     -33.927772      0             -33.85914      -563088.09    
       760   290.18012     -33.984201      0             -33.796658     -503227.55    
       770   0.53458003    -34.026012      0             -34.025666     -488769.03    
       780   7.8807445     -34.059516      0             -34.054423     -496897.1     
       790   44.932078     -34.054199      0             -34.02516      -476257.56    
       800   0.1124829     -34.078307      0             -34.078234     -440061.49    
       810   3.7104639     -34.080456      0             -34.078058     -445960.65    
       820   0.04315846    -34.080292      0             -34.080264     -440244.32    
       830   0.039954023   -34.081722      0             -34.081696     -446749.13    
       840   0.038933541   -34.081802      0             -34.081777     -446438.49    
       850   0.00072545215 -34.081261      0             -34.08126      -441485.8     
       860   2.0131225e-05 -34.08126       0             -34.08126      -441487.23    
       870   6.6688889e-05 -34.08126       0             -34.08126      -441487.33    
       880   1.600689e-06  -34.081806      0             -34.081806     -446407.83    
       890   1.2537322e-06 -34.081806      0             -34.081806     -446407.82    
       900   5.7215731e-10 -34.081806      0             -34.081806     -446407.82    
       910   3.5759831e-11 -34.081806      0             -34.081806     -446407.82    
       920   3.5759831e-11 -34.081806      0             -34.081806     -446407.82    
       930   5.5874736e-13 -34.081806      0             -34.081806     -446407.82    
       935   7.0416136e-12 -34.081806      0             -34.081806     -446407.82    
Loop time of 7.18569 on 1 procs for 935 steps with 6 atoms

99.8% CPU use with 1 MPI tasks x 1 OpenMP threads

Minimization stats:
  Stopping criterion = energy tolerance
  Energy initial, next-to-last, final = 
     -5.66493501558702   -34.081805776894   -34.081805776894
  Force two-norm initial, final = 50.56174 0.75630381
  Force max component initial, final = 30.342732 0.46059068
  Final line search alpha, max atom move = 0 0
  Iterations, force evaluations = 935 1020

MPI task timing breakdown:
Section |  min time  |  avg time  |  max time  |%varavg| %total
---------------------------------------------------------------
Pair    | 7.1454     | 7.1454     | 7.1454     |   0.0 | 99.44
Neigh   | 0.00011462 | 0.00011462 | 0.00011462 |   0.0 |  0.00
Comm    | 0.024624   | 0.024624   | 0.024624   |   0.0 |  0.34
Output  | 0.0029025  | 0.0029025  | 0.0029025  |   0.0 |  0.04
Modify  | 0          | 0          | 0          |   0.0 |  0.00
Other   |            | 0.01262    |            |       |  0.18

Nlocal:              6 ave           6 max           6 min
Histogram: 1 0 0 0 0 0 0 0 0 0
Nghost:           2563 ave        2563 max        2563 min
Histogram: 1 0 0 0 0 0 0 0 0 0
Neighs:             57 ave          57 max          57 min
Histogram: 1 0 0 0 0 0 0 0 0 0
FullNghs:         4780 ave        4780 max        4780 min
Histogram: 1 0 0 0 0 0 0 0 0 0

Total # of neighbors = 4780
Ave neighs/atom = 796.66667
Neighbor list builds = 1
Dangerous builds = 0
write_data ./StructureDump/sample.4.dat 
System init for write_data ...
variable etot equal etotal
variable ptot equal press
variable pairp equal epair
variable numat equal atoms
run 0
WARNING: No fixes with time integration, atoms won't move (src/verlet.cpp:60)
Per MPI rank memory allocation (min/avg/max) = 3.9 | 3.9 | 3.9 Mbytes
   Step          Temp          E_pair         E_mol          TotEng         Press     
       935   7.0416136e-12 -34.081806      0             -34.081806     -477101.1     
Loop time of 3.3445e-05 on 1 procs for 0 steps with 6 atoms

0.0% CPU use with 1 MPI tasks x 1 OpenMP threads

MPI task timing breakdown:
Section |  min time  |  avg time  |  max time  |%varavg| %total
---------------------------------------------------------------
Pair    | 0          | 0          | 0          |   0.0 |  0.00
Neigh   | 0          | 0          | 0          |   0.0 |  0.00
Comm    | 0          | 0          | 0          |   0.0 |  0.00
Output  | 0          | 0          | 0          |   0.0 |  0.00
Modify  | 0          | 0          | 0          |   0.0 |  0.00
Other   |            | 3.344e-05  |            |       |100.00

Nlocal:              6 ave           6 max           6 min
Histogram: 1 0 0 0 0 0 0 0 0 0
Nghost:           2624 ave        2624 max        2624 min
Histogram: 1 0 0 0 0 0 0 0 0 0
Neighs:             60 ave          60 max          60 min
Histogram: 1 0 0 0 0 0 0 0 0 0
FullNghs:         4744 ave        4744 max        4744 min
Histogram: 1 0 0 0 0 0 0 0 0 0

Total # of neighbors = 4744
Ave neighs/atom = 790.66667
Neighbor list builds = 0
Dangerous builds = 0
print "${etot} ${pairp} ${ptot} ${numat} " append Summary.dat screen no
Total wall time: 0:00:07
