LAMMPS data file via write_data, version 7 Feb 2024, timestep = 1899, units = metal

8 atoms
1 atom types

0 4.571715029668415 xlo xhi
0 4.571715029668415 ylo yhi
0 4.571715029668415 zlo zhi
2.2858575148342073 2.2858575148342073 0 xy xz yz

Masses

1 51.9961

Atoms # atomic

1 1 2.61610889243918 0.08804843061894073 1.1399443480577376 0 0 0
2 1 3.8758971378149933 2.029561488490233 1.3451637517395478 0 0 0
3 1 4.102464398247218 3.95676533246608 4.221177239430444 0 0 0
4 1 5.163578701270041 3.052030234786978 1.3429793933233363 0 0 0
5 1 3.3393420984020494 1.1194229027832188 0.09025200247820488 0 0 1
6 1 4.39456498610085 3.1944145361923764 2.7893949062192043 0 0 0
7 1 4.825514364319906 2.4825288973457735 4.209314963169612 0 0 0
8 1 3.6345173394542587 3.6475720719925713 1.402946331306867 0 0 0

Velocities

1 -2.460314458030622e-06 2.5739019019358347e-06 6.119066045451995e-07
2 6.1027463118070115e-06 -9.79407722288126e-07 -2.4135148850501795e-06
3 2.1418255590525061e-07 1.970844567170642e-07 -2.634885559276901e-06
4 -4.637052464374937e-07 -2.2353381378308645e-06 7.900357023160218e-07
5 9.862101654337892e-07 -4.5464697723495064e-07 4.9514872841385864e-06
6 -2.1910935936796995e-06 -1.6854901960089282e-06 -1.6733393364855732e-06
7 -1.6026681562052533e-06 6.145766162100573e-07 -2.792744520822922e-06
8 -5.853575787931443e-07 1.9693200585000853e-06 3.161054710635801e-06
