LAMMPS data file via write_data, version 7 Feb 2024, timestep = 4050, units = metal

9 atoms
1 atom types

0 6.857572544502622 xlo xhi
0 6.857572544502622 ylo yhi
0 2.2858575148342073 zlo zhi
2.2858575148342073 0 0 xy xz yz

Masses

1 51.9961

Atoms # atomic

1 1 5.341826748519371 3.1119984366962274 1.1966701619181408 0 0 0
2 1 3.931476121051071 2.6496660213689687 0.5501449482834451 0 0 0
3 1 3.909143049275776 3.727443611494605 1.6905277761096977 0 0 0
4 1 3.867853859732877 4.869099322255693 0.5509011556542708 0 0 0
5 1 2.793108619973558 2.6250154044828204 1.6795220165583968 0 0 0
6 1 1.3664452723239133 3.1255385084654286 1.0944122567192285 1 0 0
7 1 2.6954863643937204 4.787313080993807 1.6928397553851282 0 0 1
8 1 3.963395735457259 1.5590727894271972 1.6556454338081892 0 0 0
9 1 2.768600617225667 3.7032265683469587 0.5532697507975987 0 0 0

Velocities

1 -1.7395026699072265e-08 2.4109514954706686e-09 -9.578036569490661e-08
2 -2.8789319612711327e-08 -2.9049843700225384e-08 6.361175294342477e-08
3 4.002532478457742e-08 -4.6352635261599896e-08 -2.5649809299164725e-08
4 9.221569929232247e-08 -2.7362248693293516e-08 4.0478824408244627e-08
5 -6.23629245372992e-08 3.316036205835592e-08 -7.773666593125377e-09
6 2.028124693727841e-09 4.0796933846130314e-08 -5.407039105889175e-08
7 7.393496870691824e-08 4.146747355877142e-08 2.881086348525431e-09
8 -9.511994995932152e-08 -3.505860232827217e-08 8.95632638460281e-09
9 -4.5369016438509945e-09 1.998762474251823e-08 6.734622623337272e-08
