ats_10.data (written by ASE) 

8 	 atoms 
1  atom types
0.0      5.7599999999999998  xlo xhi
0.0      5.7599999999999998  ylo yhi
0.0      2.8799999999999999  zlo zhi


Atoms 

     1   1      5.2487741186517836     0.57444938295256132     0.68516881406565211
     2   1      3.3005541580523681     0.73242415403471539      2.6403377400151813
     3   1      1.7804753499194432      1.6154608636130237      2.8226907512847461
     4   1      3.1368970353586345      4.3235249645612877      2.8572241353843353
     5   1      2.4538918037655071      2.6958795480350513     0.76871812444306176
     6   1      2.8618084916865403     0.55488273377310571      1.1169644700664754
     7   1      2.9069646349715139       4.692088210809672      1.4107650077661917
     8   1      5.4670126177072147      4.2424425250788538      1.6108303444671097
