ats_7.data (written by ASE) 

8 	 atoms 
1  atom types
0.0      5.7599999999999998  xlo xhi
0.0      5.7599999999999998  ylo yhi
0.0      2.8799999999999999  zlo zhi


Atoms 

     1   1        1.11272328950315      4.1081421375723268      1.7739938358607616
     2   1      5.2583394379216895     0.85405541476155045      2.5736657140801373
     3   1      2.8228027645027214      0.6301608515599576     0.67987510717910715
     4   1     0.50371389551547541       1.414812815948213     0.82703977133322837
     5   1      3.1333185699981159      3.5807629137677193     0.58381788546038649
     6   1      2.0874861919903021     0.01858551965380208      2.0693080941488051
     7   1      2.2994057413428588      1.8435848817012996      2.2195555988695888
     8   1      2.5121840127380932      4.8628461525774753     0.60372699859379875
