ats_1.data (written by ASE) 

8 	 atoms 
1  atom types
0.0      5.7599999999999998  xlo xhi
0.0      5.7599999999999998  ylo yhi
0.0      2.8799999999999999  zlo zhi


Atoms 

     1   1      3.7153529638459801       2.658740494148677      1.7630347004658975
     2   1      5.2338565849748546      3.8058689281681417      2.7491161413058172
     3   1      1.3055676737094482      3.5364979778188208      2.1463649377686642
     4   1      5.4084130197662912      2.0112585274801749      1.0980820652966179
     5   1      4.3041763627613161     0.51590137461781838      2.0883821259597672
     6   1      3.2788776614867001      1.3465868557460658     0.57854424061309961
     7   1      2.4686879836901738      3.5122097193246438     0.30888671710667137
     8   1      2.1494490032675264      0.2487665451300318      1.2907508034275399
