ats_2.data (written by ASE) 

8 	 atoms 
1  atom types
0.0      5.7599999999999998  xlo xhi
0.0      5.7599999999999998  ylo yhi
0.0      2.8799999999999999  zlo zhi


Atoms 

     1   1      3.7827424865003625      0.7393102125412141     0.71482217716299856
     2   1       2.641511323807229    0.073822684100500732     0.10796725381161248
     3   1     0.83712523489229995      5.4374114446043977     0.58035596056830741
     4   1      1.9661493879907934      2.5577254945070691      1.6536359283418514
     5   1     0.51286027442436399      1.1578098480046357     0.68418288719967002
     6   1       2.662717366248923      2.2525889474712302       0.396905663878105
     7   1      1.7784963732855801      3.9560488962327165     0.68639146791565264
     8   1      5.2493704578205707      3.6686401478906361      2.0605929090881232
