ats_3.data (written by ASE) 

8 	 atoms 
1  atom types
0.0      5.7599999999999998  xlo xhi
0.0      5.7599999999999998  ylo yhi
0.0      2.8799999999999999  zlo zhi


Atoms 

     1   1      1.0140916057421776      4.4814664696712443     0.80028677309024121
     2   1      1.3399583305073055      2.0271196451461191     0.41351988018177027
     3   1      2.9293731596381445      5.2734084924157809      1.2836360214924076
     4   1     0.32011858334120102      2.5371802216592205      1.5639707233048474
     5   1      5.0664421833366724      1.2878947089734936      0.5186818854931543
     6   1      3.5029093568923928       2.857984954545663      1.4656738406730245
     7   1      1.8703353541264525      3.4816439218887623      2.4525366254984013
     8   1     0.15634266549887257      4.3825368303353356      2.3055804581835568
