mass 1 51.996100
pair_style hybrid/overlay soft 1.5 mliap model mliappy LATER descriptor ace coupling_coefficients.yace
Loading python model deferred.
pair_coeff * * soft 100.0
pair_coeff * * mliap   Cr

thermo 10
velocity all create 0.0001 4928459 dist gaussian
Loading python model complete.
min_style  fire
min_modify integrator eulerexplicit tmax 10.0 tmin 0.0 delaystep 5 dtgrow 1.1 dtshrink 0.5 alpha0 0.1 alphashrink 0.99 vdfmax 100000 halfstepback no initialdelay no
minimize 1e-12 1e-12 10000 100000
Neighbor list info ...
  update: every = 1 steps, delay = 0 steps, check = yes
  max neighbors/atom: 2000, page size: 100000
  master list distance cutoff = 13.209389
  ghost atom cutoff = 13.209389
  binsize = 6.6046944, bins = 1 1 1
  2 neighbor lists, perpetual/occasional/extra = 2 0 0
  (1) pair soft, perpetual, half/full trim from (2)
      attributes: half, newton on, cut 3.5
      pair build: halffull/trim/newton
      stencil: none
      bin: none
  (2) pair mliap, perpetual
      attributes: full, newton on
      pair build: full/bin/atomonly
      stencil: full/bin/3d
      bin: standard
  Parameters for fire:
    dmax  delaystep dtgrow dtshrink alpha0 alphashrink tmax tmin   integrator   halfstepback   abcfire  
     0.1      5      1.1     0.5     0.1      0.99      10   0   eulerexplicit       no          no     
Per MPI rank memory allocation (min/avg/max) = 3.996 | 3.996 | 3.996 Mbytes
   Step          Temp          E_pair         E_mol          TotEng         Press     
         0   0             -2.7831143      0             -2.7831143      424266.71    
        10   2671.9881     -5.2040578      0             -2.7863868      107004.81    
        20   1546.6337     -5.866982       0             -4.4675553      71255.475    
        30   1241.4373     -8.4659038      0             -7.3426252      274782.71    
        40   624.60838     -10.563115      0             -9.9979565      67220.482    
        50   938.92688     -12.849352      0             -11.999791      213157.09    
        60   3.5298303     -13.40206       0             -13.398866     -38837.46     
        70   103.42413     -13.466628      0             -13.373048      16701.397    
        80   640.85271     -13.718325      0             -13.138468      68760.931    
        90   4601.0191     -14.543945      0             -10.380846      133553.68    
       100   514.55472     -15.632251      0             -15.166671     -21929.282    
       110   2.9984973     -16.634183      0             -16.63147       39922.237    
       120   1.7102873     -16.220439      0             -16.218891      83815.518    
       130   44.92332      -16.25733       0             -16.216683      72455.068    
       140   266.37108     -16.450677      0             -16.209658      45942.005    
       150   8.7328689     -16.857837      0             -16.849935      33941.391    
       160   8.8738179     -17.442559      0             -17.43453       47277.779    
       170   69.630267     -17.502194      0             -17.439191      28647.535    
       180   498.83474     -17.860393      0             -17.409037      22903.174    
       190   20.518677     -18.193979      0             -18.175413      9039.0998    
       200   230.529       -18.373481      0             -18.164893      5577.7392    
       210   392.65236     -21.435218      0             -21.079938     -66464.904    
       220   1.7868668     -21.704941      0             -21.703325     -60817.346    
       230   65.532447     -21.749598      0             -21.690303     -42856.682    
       240   556.99448     -20.553306      0             -20.049326      28440.242    
       250   2229.5684     -21.728958      0             -19.711598     -100146.83    
       260   184.08742     -22.313505      0             -22.146939     -73719.898    
       270   215.02987     -22.684521      0             -22.489958     -53682.178    
       280   66.105539     -22.028797      0             -21.968984     -38342.095    
       290   482.81883     -22.259787      0             -21.822923     -69162.295    
       300   15.065851     -22.84911       0             -22.835478     -114841.1     
       310   167.44844     -22.981892      0             -22.830381     -151717.22    
       320   222.43718     -22.862507      0             -22.661242     -115532.78    
       330   63.410163     -22.897676      0             -22.840301     -133813.81    
       340   378.15314     -23.387021      0             -23.04486      -146290.33    
       350   11.558848     -23.479005      0             -23.468547     -147890.69    
       360   115.4838      -23.532717      0             -23.428225     -167461.71    
       370   863.02426     -24.149446      0             -23.368563     -75776.427    
       380   239.94051     -24.469644      0             -24.25254      -201810.51    
       390   46.31112      -24.839223      0             -24.797319     -208999.96    
       400   281.30507     -24.715768      0             -24.461237     -188826.14    
       410   239.4295      -23.685812      0             -23.469171     -91287.553    
       420   0.20667654    -23.827133      0             -23.826946     -128567.95    
       430   18.931912     -23.842369      0             -23.825239     -111937.54    
       440   94.272264     -23.91627       0             -23.83097      -77720.09     
       450   196.9822      -25.175443      0             -24.99721      -21053.73     
       460   1.0103413     -25.203897      0             -25.202982     -58254.685    
       470   11.887377     -25.213985      0             -25.203229     -54945.265    
       480   89.476264     -24.170938      0             -24.089978     -66067.445    
       490   6.4366378     -25.452021      0             -25.446197     -107773.75    
       500   2.1779898     -25.472802      0             -25.470831     -130671.78    
       510   15.675905     -25.485723      0             -25.471539     -118736.48    
       520   123.69713     -24.416074      0             -24.30415      -88855.928    
       530   4.6107325     -24.760241      0             -24.756069     -121934.3     
       540   78.993151     -25.822747      0             -25.751273     -145001.27    
       550   80.623431     -24.90161       0             -24.82866      -109228.96    
       560   34.671244     -24.932163      0             -24.900792     -149280.9     
       570   62.582869     -25.047395      0             -24.990768     -162188.09    
       580   14.28315      -25.108585      0             -25.095661     -144158.18    
       590   113.59586     -26.046502      0             -25.943719     -163236.54    
       600   211.55097     -26.362402      0             -26.170986     -181214.17    
       610   37.229347     -26.392201      0             -26.358515     -178939.48    
       620   38.143137     -26.477216      0             -26.442703     -194598.06    
       630   16.745393     -26.489177      0             -26.474025     -194755.82    
       640   118.45318     -26.573764      0             -26.466585     -203693.67    
       650   9.4900283     -26.677186      0             -26.668599     -223626.77    
       660   3.7314912     -26.706527      0             -26.70315      -203149.29    
       670   26.856179     -26.728699      0             -26.704399     -211201.18    
       680   203.97841     -26.737203      0             -26.552639     -216841.39    
       690   12.415714     -26.789183      0             -26.777949     -211414.72    
       700   72.545702     -26.843767      0             -26.778126     -205867.28    
       710   629.30398     -27.724475      0             -27.155067     -204209.55    
       720   1.9262329     -27.741528      0             -27.739785     -217663.77    
       730   27.403853     -27.764336      0             -27.73954      -198579.89    
       740   249.43061     -28.481564      0             -28.255874     -203296.85    
       750   27.881593     -29.412712      0             -29.387484     -157398.71    
       760   10.247321     -29.497217      0             -29.487945     -204139.3     
       770   70.684081     -29.555695      0             -29.491739     -189274.69    
       780   509.36854     -30.184609      0             -29.723721     -232842.02    
       790   18.68514      -30.30909       0             -30.292183     -260613.85    
       800   149.33478     -30.425776      0             -30.290655     -246891.19    
       810   740.07571     -31.002024      0             -30.332388     -292723.77    
       820   57.636477     -31.030008      0             -30.977857     -295805.31    
       830   611.75014     -31.487013      0             -30.933489     -391404.37    
       840   251.01778     -31.803992      0             -31.576866     -413791.88    
       850   30.84564      -31.836418      0             -31.808508     -402299.12    
       860   220.13371     -32.013123      0             -31.813942     -387762.02    
       870   195.09779     -32.700727      0             -32.524198     -482500.09    
       880   109.76174     -32.818418      0             -32.719104     -481036.52    
       890   137.77233     -33.72876       0             -33.6041       -552892.14    
       900   93.093397     -33.813944      0             -33.729711     -549731.44    
       910   582.07697     -34.098131      0             -33.571456     -535865.22    
       920   17.959165     -34.380585      0             -34.364336     -501484.12    
       930   105.44501     -34.470476      0             -34.375067     -514374.29    
       940   75.66909      -34.745426      0             -34.676959     -507584.58    
       950   33.726235     -34.788745      0             -34.758228     -496196.62    
       960   216.83762     -34.810418      0             -34.614219     -487781.01    
       970   537.4061      -35.139411      0             -34.653154     -561863       
       980   4.419263      -35.258984      0             -35.254986     -538501.57    
       990   46.460084     -35.306631      0             -35.264593     -558032.23    
      1000   324.07575     -35.534077      0             -35.240846     -590150.36    
      1010   10.325772     -35.795711      0             -35.786368     -613767.1     
      1020   114.7013      -36.049505      0             -35.945721     -619914.52    
      1030   134.95658     -36.143309      0             -36.021198     -733010.89    
      1040   0.22766887    -36.583836      0             -36.58363      -740484.78    
      1050   29.936974     -36.607939      0             -36.580851     -742923.16    
      1060   198.09011     -36.764658      0             -36.585422     -774316.32    
      1070   331.82459     -36.621355      0             -36.321113     -528013.99    
      1080   0.58902766    -37.503463      0             -37.50293      -757773.83    
      1090   30.207036     -37.529817      0             -37.502486     -802799.94    
      1100   123.36134     -37.603459      0             -37.491839     -801749.33    
      1110   4.3359294     -37.632825      0             -37.628902     -795326.27    
      1120   43.662285     -37.667601      0             -37.628094     -802224.82    
      1130   440.98282     -37.938849      0             -37.539838     -810998.58    
      1140   34.858862     -38.105749      0             -38.074207     -838176.13    
      1150   354.50249     -38.31797       0             -37.997209     -856501.9     
      1160   33.609588     -38.387057      0             -38.356646     -821373.35    
      1170   174.55233     -38.508334      0             -38.350395     -826494.88    
      1180   204.45319     -38.78257       0             -38.597577     -828425.47    
      1190   74.23593      -38.846256      0             -38.779086     -867486.07    
      1200   627.08335     -39.253217      0             -38.685819     -895457.9     
      1210   25.217044     -39.354365      0             -39.331548     -858367.82    
      1220   244.75796     -39.546689      0             -39.325227     -867231.89    
      1230   2136.9544     -40.706377      0             -38.772816     -754517.89    
      1240   1526.8484     -44.512234      0             -43.13071      -994902.19    
      1250   377.89608     -47.587321      0             -47.245393     -69273.326    
      1260   22.739527     -49.122278      0             -49.101702     -452706.68    
      1270   903.60369     -50.14926       0             -49.33166      -307205.8     
      1280   420.53604     -50.678634      0             -50.298124     -254493.29    
      1290   205.84722     -52.050281      0             -51.864026     -356579.31    
      1300   922.03095     -54.051556      0             -53.217283     -247551.57    
      1310   13.672046     -54.96091       0             -54.948539     -252424.1     
      1320   330.998       -55.246025      0             -54.946531     -330823.06    
      1330   3122.356      -57.689643      0             -54.86447      -432561.13    
      1340   276.19663     -58.680409      0             -58.4305       -465637.51    
      1350   1728.2344     -59.988637      0             -58.424894     -521099.73    
      1360   35.260123     -61.581949      0             -61.550045     -475831.1     
      1370   347.22026     -61.902746      0             -61.588574     -273542.29    
      1380   391.08757     -63.045158      0             -62.691294     -178997.39    
      1390   331.72164     -63.520893      0             -63.220744     -341031.66    
      1400   1026.0331     -64.208081      0             -63.279705     -495311.72    
      1410   20.27703      -65.463141      0             -65.444794     -474210.48    
      1420   461.60434     -65.863686      0             -65.446016     -344849.41    
      1430   181.32218     -66.318431      0             -66.154367     -302799.95    
      1440   52.610971     -66.393607      0             -66.346004     -282830.17    
      1450   231.05275     -66.559155      0             -66.350094     -240636.79    
      1460   284.60354     -67.269039      0             -67.011524     -183915.89    
      1470   0.46430741    -67.428808      0             -67.428388     -256607.85    
      1480   47.452316     -67.467299      0             -67.424363     -298863.53    
      1490   331.41273     -67.731451      0             -67.431582     -268460.01    
      1500   362.401       -68.663424      0             -68.335516     -402754.38    
      1510   118.66904     -68.802209      0             -68.694834     -364550.93    
      1520   114.64403     -69.412295      0             -69.308563     -344715.89    
      1530   75.454496     -69.48515       0             -69.416877     -326393.36    
      1540   395.20111     -69.763625      0             -69.406039     -223144       
      1550   0.5515922     -69.840397      0             -69.839898     -316545.72    
      1560   32.179164     -69.868154      0             -69.839038     -302567.09    
      1570   150.64003     -69.974522      0             -69.838219     -320665.63    
      1580   16.977948     -70.069845      0             -70.054483     -341648.12    
      1590   4.3415161     -70.085808      0             -70.081879     -329437.83    
      1600   18.793835     -70.100393      0             -70.083388     -331327.4     
      1610   7.8121853     -70.136849      0             -70.12978      -287672.83    
      1620   12.329708     -70.167169      0             -70.156013     -335169.14    
      1630   2.751309      -70.169337      0             -70.166848     -346890.35    
      1640   17.170211     -70.182743      0             -70.167207     -338749.24    
      1650   6.5127594     -70.215918      0             -70.210026     -364232.86    
      1660   3.553576      -70.218881      0             -70.215666     -350631.54    
      1670   29.343391     -70.241915      0             -70.215364     -344198.41    
      1680   10.503426     -70.2553        0             -70.245796     -347648.75    
      1690   0.63214442    -70.25812       0             -70.257548     -368345.42    
      1700   5.458406      -70.262335      0             -70.257396     -367873.24    
      1710   33.181799     -70.285356      0             -70.255333     -397463.37    
      1720   0.85161884    -70.294819      0             -70.294049     -374600.47    
      1730   9.8481269     -70.30237       0             -70.293459     -370627.16    
      1740   0.29917277    -70.309777      0             -70.309506     -373878.94    
      1750   3.3121054     -70.312286      0             -70.30929      -376831.2     
      1760   2.7118796     -70.317089      0             -70.314635     -371567.3     
      1770   1.0766038     -70.31805       0             -70.317076     -387575.19    
      1780   8.3409222     -70.322456      0             -70.314909     -396663.52    
      1790   0.4568884     -70.324048      0             -70.323634     -378230.24    
      1800   2.4252417     -70.325817      0             -70.323623     -381799.99    
      1810   0.98603746    -70.32923       0             -70.328337     -381008.66    
      1820   0.48061596    -70.330995      0             -70.33056      -386668.69    
      1830   2.73135       -70.33298       0             -70.330508     -394382.05    
      1840   0.063242625   -70.336027      0             -70.335969     -387885.9     
      1850   1.1800618     -70.337002      0             -70.335934     -384508.72    
      1860   7.9145756     -70.342317      0             -70.335156     -405087.69    
      1870   0.59512288    -70.347746      0             -70.347208     -387871.74    
      1880   3.9007811     -70.349981      0             -70.346451     -393523.77    
      1890   0.091703379   -70.350869      0             -70.350786     -389902.38    
      1900   1.2725734     -70.351882      0             -70.35073      -390421.76    
      1910   11.93349      -70.357564      0             -70.346766     -375556.14    
      1920   0.0033788129  -70.359219      0             -70.359216     -387964.86    
      1930   0.28564891    -70.359464      0             -70.359206     -392745.84    
      1940   2.1419863     -70.36112       0             -70.359181     -392632.07    
      1950   0.049483241   -70.363254      0             -70.363209     -396318.23    
      1960   0.67982406    -70.36383       0             -70.363214     -389820.25    
      1970   0.36427283    -70.365321      0             -70.364992     -392423.88    
      1980   0.21213668    -70.366033      0             -70.365841     -389098.55    
      1990   0.14231295    -70.366277      0             -70.366148     -394735.44    
      2000   0.78085413    -70.366853      0             -70.366147     -393349.62    
      2010   0.59203127    -70.368104      0             -70.367568     -410319.25    
      2020   0.00077877696 -70.369998      0             -70.369997     -394560.04    
      2030   0.11405974    -70.370092      0             -70.369989     -393482.46    
      2040   1.0771464     -70.370926      0             -70.369952     -394504.61    
      2050   8.9432855     -70.375759      0             -70.367667     -384700.63    
      2060   0.0050043321  -70.3777        0             -70.377696     -395986.32    
      2070   0.24714246    -70.377898      0             -70.377675     -395121.18    
      2080   2.3579167     -70.379737      0             -70.377604     -396184.04    
      2090   0.80369299    -70.380155      0             -70.379427     -371137.11    
      2100   0.068358477   -70.384256      0             -70.384194     -397269.28    
      2110   0.7005873     -70.384811      0             -70.384177     -398495.42    
      2120   1.3037523     -70.38566       0             -70.38448      -378395.42    
      2130   0.013261264   -70.388064      0             -70.388052     -396268.73    
      2140   0.19455627    -70.388227      0             -70.388051     -399458.43    
      2150   1.493063      -70.389411      0             -70.38806      -401905.53    
      2160   0.200101      -70.390209      0             -70.390028     -401397.45    
      2170   0.041405539   -70.390321      0             -70.390284     -397614.94    
      2180   0.34127739    -70.390586      0             -70.390278     -398814.48    
      2190   2.0978194     -70.392015      0             -70.390117     -390339.62    
      2200   0.15166051    -70.393478      0             -70.393341     -399549.83    
      2210   1.0204304     -70.394172      0             -70.393248     -396756.27    
      2220   0.032930507   -70.394472      0             -70.394442     -398218.84    
      2230   0.34569795    -70.394759      0             -70.394446     -399980.89    
      2240   0.11092251    -70.396029      0             -70.395928     -392938.04    
      2250   0.28440606    -70.396459      0             -70.396202     -398481.54    
      2260   0.08171322    -70.396528      0             -70.396454     -400325.11    
      2270   0.58008017    -70.396978      0             -70.396453     -398771.41    
      2280   0.29009062    -70.398884      0             -70.398621     -410876.53    
      2290   0.17735233    -70.399552      0             -70.399391     -404814.57    
      2300   0.069186468   -70.400393      0             -70.40033      -404065.55    
      2310   0.086765604   -70.400534      0             -70.400455     -401301.73    
      2320   0.59723416    -70.401018      0             -70.400478     -399305.09    
      2330   1.0216834     -70.402239      0             -70.401315     -407752.68    
      2340   0.010271804   -70.402479      0             -70.40247      -400122.78    
      2350   0.14221627    -70.402589      0             -70.40246      -403490.73    
      2360   1.082203      -70.403411      0             -70.402432     -405217.33    
      2370   0.025976917   -70.404272      0             -70.404249     -404255.05    
      2380   0.37478707    -70.404568      0             -70.404229     -402789.98    
      2390   0.34507028    -70.405452      0             -70.405139     -415640.41    
      2400   0.12220941    -70.406469      0             -70.406358     -403864.53    
      2410   1.4561214     -70.407634      0             -70.406317     -405195.06    
      2420   0.29469458    -70.409711      0             -70.409444     -397167.39    
      2430   0.08350732    -70.410129      0             -70.410054     -405555.99    
      2440   0.51581366    -70.410513      0             -70.410046     -406701.83    
      2450   1.3635583     -70.41186       0             -70.410626     -414030.25    
      2460   0.0023867136  -70.412419      0             -70.412416     -406664.76    
      2470   0.10152888    -70.412499      0             -70.412408     -405237.17    
      2480   0.90008845    -70.413201      0             -70.412387     -405998.52    
      2490   0.38782121    -70.415636      0             -70.415285     -407698.95    
      2500   0.0098945852  -70.415751      0             -70.415742     -403975.09    
      2510   0.18114117    -70.41591       0             -70.415746     -408891.06    
      2520   1.3279259     -70.416875      0             -70.415674     -411906.5     
      2530   0.086111175   -70.417966      0             -70.417888     -410984.83    
      2540   0.62752182    -70.418419      0             -70.417852     -408130.9     
      2550   0.3400729     -70.419268      0             -70.418961     -410625.02    
      2560   0.17061606    -70.419412      0             -70.419258     -406742.39    
      2570   1.4283506     -70.420466      0             -70.419173     -405269.86    
      2580   0.035858109   -70.421605      0             -70.421573     -407353.09    
      2590   0.53653015    -70.422037      0             -70.421551     -408817       
      2600   0.2744261     -70.424001      0             -70.423752     -406272.52    
      2610   0.23302862    -70.424271      0             -70.42406      -407705.66    
      2620   1.9816619     -70.425371      0             -70.423578     -403582.31    
      2630   0.15692721    -70.42576       0             -70.425618     -413086.01    
      2640   0.75232698    -70.426291      0             -70.42561      -412345.86    
      2650   0.57037988    -70.427318      0             -70.426801     -414521.34    
      2660   0.21800645    -70.427501      0             -70.427303     -409572.1     
      2670   1.7473858     -70.42876       0             -70.427179     -408560.22    
      2680   0.3691311     -70.429916      0             -70.429582     -400825.57    
      2690   0.036587619   -70.430833      0             -70.4308       -413919.07    
      2700   0.38989026    -70.431138      0             -70.430786     -411960.73    
      2710   3.156031      -70.433566      0             -70.43071      -415782.42    
      2720   0.1808321     -70.435918      0             -70.435755     -418337.74    
      2730   1.1450288     -70.436663      0             -70.435627     -420823.7     
      2740   0.031214672   -70.43696       0             -70.436932     -411987.17    
      2750   0.3429233     -70.43726       0             -70.43695      -417829.1     
      2760   2.4595691     -70.439135      0             -70.436909     -423650.71    
      2770   0.13913938    -70.440771      0             -70.440645     -418988.13    
      2780   1.1046486     -70.441582      0             -70.440582     -419869.18    
      2790   6.8868095     -70.443893      0             -70.437662     -435554.73    
      2800   0.42960444    -70.445944      0             -70.445555     -421249.29    
      2810   4.750236      -70.449353      0             -70.445055     -425667.19    
      2820   0.72288622    -70.450711      0             -70.450057     -422315.12    
      2830   0.19029653    -70.450919      0             -70.450747     -419545.37    
      2840   1.2612029     -70.451867      0             -70.450726     -419107.47    
      2850   1.0521654     -70.455874      0             -70.454922     -414440.19    
      2860   0.59395952    -70.456649      0             -70.456111     -419078.69    
      2870   4.836901      -70.459291      0             -70.454914     -417565.99    
      2880   0.13486063    -70.459788      0             -70.459666     -425995.25    
      2890   1.3485587     -70.460837      0             -70.459617     -425288.09    
      2900   0.42738747    -70.465817      0             -70.465431     -431471.5     
      2910   0.47258277    -70.466456      0             -70.466028     -428582.78    
      2920   4.5375754     -70.469836      0             -70.46573      -433566.37    
      2930   0.17016514    -70.473649      0             -70.473495     -433146.66    
      2940   2.0308947     -70.475221      0             -70.473383     -431270       
      2950   1.9756513     -70.481903      0             -70.480116     -442851.24    
      2960   0.0061028673  -70.483298      0             -70.483292     -436964.43    
      2970   0.59091293    -70.483776      0             -70.483242     -430905.54    
      2980   4.3051676     -70.487205      0             -70.483309     -435592.46    
      2990   10.797655     -70.501516      0             -70.491746     -420662.41    
      3000   2.08593       -70.504949      0             -70.503062     -427585.56    
      3010   3.8522311     -70.514134      0             -70.510648     -417729.52    
      3020   1.4010012     -70.517866      0             -70.516598     -431853.43    
      3030   13.694379     -70.528831      0             -70.51644      -433227.83    
      3040   31.850511     -70.578063      0             -70.549244     -449431.71    
      3050   14.211706     -70.589223      0             -70.576364     -424152.92    
      3060   29.760376     -70.627612      0             -70.600684     -442057.09    
      3070   7.9255889     -70.634129      0             -70.626958     -429059.27    
      3080   86.338744     -70.703984      0             -70.625863     -419564.61    
      3090   4.009754      -70.751089      0             -70.74746      -425743.59    
      3100   33.167903     -70.776972      0             -70.746961     -434710.25    
      3110   61.992193     -70.848208      0             -70.792116     -442021.96    
      3120   12.590605     -70.858521      0             -70.847129     -457915.75    
      3130   131.96038     -70.964688      0             -70.845288     -482342.99    
      3140   8.925789      -71.23883       0             -71.230754     -461070.84    
      3150   137.59722     -71.335025      0             -71.210524     -460437.27    
      3160   1.5318496     -71.514682      0             -71.513295     -465874.27    
      3170   63.27203      -71.57307       0             -71.51582      -573313.98    
      3180   536.80005     -71.909167      0             -71.423459     -744493.03    
      3190   168.19652     -72.443258      0             -72.29107      -694698.58    
      3200   41.40959      -72.530168      0             -72.4927       -595303.51    
      3210   303.65778     -72.766698      0             -72.491942     -640441.35    
      3220   2574.8647     -74.462174      0             -72.132382     -517672.04    
      3230   298.74484     -71.861891      0             -71.59158      -828223.86    
      3240   4916.9821     -75.769112      0             -71.320124     -922646.63    
      3250   256.54425     -79.324875      0             -79.092749     -527306.81    
      3260   115.94091     -80.329325      0             -80.224419     -829634.85    
      3270   859.94638     -81.060792      0             -80.282694     -610687.48    
      3280   6860.2102     -85.923452      0             -79.71619      -298204.92    
      3290   565.84312     -88.134038      0             -87.622051     -1144716.9    
      3300   181.13528     -92.542829      0             -92.378934     -473097.11    
      3310   61.328561     -93.312751      0             -93.25726      -867338.37    
      3320   432.65645     -93.67503       0             -93.283553     -686970.84    
      3330   1559.9006     -94.534251      0             -93.12282      -625102.04    
      3340   258.63454     -94.975982      0             -94.741964     -779798.71    
      3350   91.118673     -95.088235      0             -95.005789     -806878.51    
      3360   448.46857     -95.416315      0             -95.010531     -814953.72    
      3370   334.40272     -96.042367      0             -95.739792     -1186797.8    
      3380   767.01063     -97.168252      0             -96.474245     -1004256      
      3390   198.04737     -97.321553      0             -97.142355     -921312.4     
      3400   820.83599     -97.947161      0             -97.204451     -1047493.3    
      3410   369.04844     -99.8587        0             -99.524777     -1061155.5    
      3420   251.6556      -100.06981      0             -99.842112     -1138711.9    
      3430   2023.3882     -95.715279      0             -93.884475     -1207886.2    
      3440   692.11068     -96.904448      0             -96.278212     -1246123.9    
      3450   161.30609     -97.203068      0             -97.057115     -1190095.3    
      3460   858.38816     -97.849313      0             -97.072625     -1235374.9    
      3470   1149.851      -101.27024      0             -100.22983     -1161896      
      3480   419.99742     -102.60377      0             -102.22375     -1448705.7    
      3490   1928.5172     -103.92831      0             -102.18335     -1311538.7    
      3500   25.799769     -92.560033      0             -92.536689     -1173137.9    
      3510   417.63849     -86.450616      0             -86.072728     -850146.93    
      3520   142.79572     -87.234424      0             -87.105219     -1228314.1    
      3530   83.010566     -87.366854      0             -87.291744     -1145197.1    
      3540   354.55015     -89.708001      0             -89.387197     -1187793.4    
      3550   2.6297391     -87.99925       0             -87.99687      -1203884      
      3560   102.88558     -88.095019      0             -88.001926     -1145881.7    
      3570   10.021406     -85.987446      0             -85.978378     -1124494      
      3580   25.099718     -86.075749      0             -86.053038     -1170154.2    
      3590   228.64224     -86.252744      0             -86.045864     -1191144.3    
      3600   359.10593     -86.6001        0             -86.275174     -1109354.6    
      3610   0.71571186    -86.845735      0             -86.845088     -1133676.5    
      3620   60.795621     -86.894907      0             -86.839898     -1106336.6    
      3630   265.53562     -87.102531      0             -86.862269     -1129460.3    
      3640   1.6810049     -87.560462      0             -87.55894      -1071229.1    
      3650   123.09113     -87.667296      0             -87.555921     -1093227.9    
      3660   1476.1083     -90.504341      0             -89.168727     -1007978.4    
      3670   81.40614      -89.010121      0             -88.936463     -943547.94    
      3680   1287.977      -90.102426      0             -88.937037     -859617.74    
      3690   10.458068     -90.413179      0             -90.403716     -966193.43    
      3700   88.755562     -90.497275      0             -90.416967     -831941.33    
      3710   798.06976     -90.551246      0             -89.829136     -676544.32    
      3720   583.53228     -94.007356      0             -93.479364     -954509.67    
      3730   33.325138     -94.043258      0             -94.013105     -935357.2     
      3740   190.78379     -94.187309      0             -94.014684     -935750.4     
      3750   72.911705     -93.029061      0             -92.963089     -991614       
      3760   49.04265      -93.075815      0             -93.03144      -983468.06    
      3770   267.70412     -93.224591      0             -92.982367     -1012432.1    
      3780   6.5488999     -93.276935      0             -93.271009     -1024054      
      3790   86.412769     -93.345239      0             -93.267051     -1030592.9    
      3800   5245.6028     -126.96986      0             -122.22353     -1467627.7    
      3810   351.90481     -127.36909      0             -127.05068     -1596724.3    
      3820   98.042201     -127.44594      0             -127.35723     -1619346.4    
      3830   302.63813     -127.66301      0             -127.38918     -1539732.6    
      3840   5.4006164     -127.78269      0             -127.7778      -1524496.7    
      3850   42.498486     -127.81993      0             -127.78147     -1529628      
      3860   24.691608     -128.01072      0             -127.98838     -1525127.2    
      3870   16.683558     -128.04358      0             -128.02848     -1506435.5    
      3880   63.076468     -128.08885      0             -128.03178     -1488612.3    
      3890   16.393172     -128.14782      0             -128.13298     -1483114.6    
      3900   12.266164     -128.18247      0             -128.17137     -1485827.4    
      3910   93.171717     -128.24474      0             -128.16043     -1479282.3    
      3920   2.2626542     -128.26371      0             -128.26166     -1479355.5    
      3930   27.318919     -128.28513      0             -128.26041     -1476563.8    
      3940   303.65736     -128.40163      0             -128.12688     -1456731.5    
      3950   6.8429047     -128.42014      0             -128.41395     -1463450.2    
      3960   1.3172255     -128.45065      0             -128.44946     -1463825.3    
      3970   4.7998564     -128.45976      0             -128.45541     -1469997.6    
      3980   20.127947     -128.47387      0             -128.45566     -1473701.4    
      3990   0.16090926    -128.49863      0             -128.49849     -1475526.5    
      4000   6.3991724     -128.50459      0             -128.4988      -1469043.9    
      4010   0.7126508     -128.53366      0             -128.53301     -1469944.5    
      4020   1.8224028     -128.54003      0             -128.53838     -1474942.9    
      4030   16.943169     -128.55313      0             -128.5378      -1476075.9    
      4040   26.257991     -128.57744      0             -128.55368     -1490757.2    
      4050   0.051985638   -128.58932      0             -128.58927     -1476702      
      4060   3.5894549     -128.59224      0             -128.58899     -1469294.4    
      4070   11.155821     -128.60025      0             -128.59016     -1464286.5    
      4080   0.18876638    -128.60565      0             -128.60548     -1461431.7    
      4090   2.5472423     -128.60781      0             -128.60551     -1460232.6    
      4100   18.748842     -128.62148      0             -128.60452     -1463083.3    
      4110   2.467478      -128.62516      0             -128.62292     -1462223.1    
      4120   0.42316478    -128.62572      0             -128.62534     -1463826.2    
      4130   2.9385498     -128.62796      0             -128.6253      -1463315.7    
      4140   0.50078985    -128.63641      0             -128.63595     -1463879.7    
      4150   0.51775713    -128.63718      0             -128.63671     -1462772.8    
      4160   4.931739      -128.64096      0             -128.6365      -1463723.6    
      4170   0.50900674    -128.64476      0             -128.6443      -1466370.1    
      4180   0.061944066   -128.64604      0             -128.64598     -1462504.3    
      4190   0.68989807    -128.64658      0             -128.64595     -1463032.1    
      4200   4.9436677     -128.65028      0             -128.64581     -1461713.7    
      4210   0.091460966   -128.65303      0             -128.65294     -1462313      
      4220   0.88463774    -128.65375      0             -128.65295     -1461664.9    
      4230   0.0047693138  -128.65559      0             -128.65559     -1462996.8    
      4240   0.27823188    -128.65583      0             -128.65558     -1462112.1    
      4250   0.28361644    -128.65645      0             -128.6562      -1462427      
      4260   0.10992222    -128.65652      0             -128.65643     -1461995.3    
      4270   0.67653289    -128.657        0             -128.65639     -1462281.7    
      4280   0.025850067   -128.65713      0             -128.65711     -1462655.7    
      4290   0.16759875    -128.65726      0             -128.65711     -1462048.1    
      4300   0.069044512   -128.65759      0             -128.65753     -1462145.8    
      4310   0.022483468   -128.65773      0             -128.65771     -1461879.5    
      4320   0.19693925    -128.65787      0             -128.65769     -1461688.7    
      4330   0.0018478631  -128.65811      0             -128.65811     -1461944      
      4340   0.060553554   -128.65817      0             -128.65811     -1462229.5    
      4350   0.49495221    -128.65854      0             -128.65809     -1461686.2    
      4360   0.024217895   -128.65878      0             -128.65876     -1461856.7    
      4370   0.0090532619  -128.6588       0             -128.65879     -1461990.8    
      4380   0.061554473   -128.65885      0             -128.65879     -1462087.1    
      4390   0.063050225   -128.65899      0             -128.65894     -1461968.5    
      4400   0.00011535003 -128.659        0             -128.659       -1462050      
      4410   0.009556357   -128.659        0             -128.65899     -1461817.1    
      4420   0.057789906   -128.65905      0             -128.65899     -1461926.7    
      4430   0.001063887   -128.65913      0             -128.65913     -1461458.1    
      4440   0.00080087694 -128.65914      0             -128.65914     -1461918.5    
      4450   0.0074429418  -128.65913      0             -128.65912     -1461733.8    
      4460   0.04853356    -128.65918      0             -128.65914     -1461572.5    
      4470   0.0077619269  -128.65921      0             -128.6592      -1461508      
      4480   0.0014758614  -128.65922      0             -128.65922     -1461841.7    
      4490   0.0071821859  -128.65922      0             -128.65921     -1461699.1    
      4500   0.058417383   -128.65926      0             -128.65921     -1461766.1    
      4510   0.020409052   -128.65927      0             -128.65926     -1461626.7    
      4520   0.00064100487 -128.65927      0             -128.65927     -1461726.5    
      4530   0.0063674115  -128.65926      0             -128.65926     -1461726.5    
      4540   0.039526914   -128.6593       0             -128.65926     -1461581.2    
      4550   0.0020313778  -128.6593       0             -128.6593      -1461646.8    
      4560   0.00052403441 -128.6593       0             -128.6593      -1461675.2    
      4570   0.0043378424  -128.6593       0             -128.6593      -1461644.7    
      4580   0.0054565447  -128.65931      0             -128.65931     -1461962      
      4590   2.8784457e-05 -128.65932      0             -128.65932     -1461656.3    
      4600   0.00047590944 -128.65932      0             -128.65932     -1461620      
      4610   0.003403069   -128.65931      0             -128.65931     -1461588.5    
      4620   0.00026162106 -128.65932      0             -128.65931     -1461595.7    
      4630   9.1659555e-05 -128.65933      0             -128.65933     -1461638.6    
      4640   0.00051801676 -128.65931      0             -128.65931     -1461612.1    
      4650   0.0038635357  -128.65932      0             -128.65932     -1461707      
      4660   0.00068794905 -128.65932      0             -128.65932     -1461612.1    
      4670   0.00010164405 -128.65933      0             -128.65933     -1461614.4    
      4680   0.00047602443 -128.65933      0             -128.65933     -1461624      
      4690   0.0010116449  -128.65932      0             -128.65932     -1461662.9    
      4700   9.7925619e-07 -128.65932      0             -128.65932     -1461605      
      4710   4.7647086e-05 -128.65934      0             -128.65934     -1461600.3    
      4720   0.00043292918 -128.65934      0             -128.65934     -1461600.2    
      4730   0.0031847294  -128.65932      0             -128.65932     -1461707.1    
      4740   7.4627557e-05 -128.65933      0             -128.65933     -1461647.6    
      4750   2.5896962e-06 -128.65932      0             -128.65932     -1461578      
      4760   1.9529961e-05 -128.65934      0             -128.65934     -1461590.5    
      4770   0.00011599015 -128.65932      0             -128.65932     -1461585.7    
      4780   7.6949957e-07 -128.65933      0             -128.65933     -1461586.5    
      4790   2.2413742e-05 -128.65933      0             -128.65933     -1461581      
      4800   0.00014615898 -128.65932      0             -128.65932     -1461602.3    
      4810   5.5908226e-05 -128.65932      0             -128.65932     -1461583.2    
      4820   3.5223167e-06 -128.65933      0             -128.65933     -1461580.4    
      4830   2.5121922e-05 -128.65932      0             -128.65932     -1461582.4    
      4840   9.0913088e-07 -128.65932      0             -128.65932     -1461573.7    
      4850   1.9522704e-08 -128.65932      0             -128.65932     -1461575.9    
      4860   2.1718153e-06 -128.65933      0             -128.65933     -1461578.2    
      4870   1.7210943e-05 -128.65932      0             -128.65932     -1461577.1    
      4880   1.0623019e-05 -128.65932      0             -128.65932     -1461573.9    
      4890   2.7223957e-06 -128.65935      0             -128.65935     -1461576.9    
      4900   1.4417751e-06 -128.65934      0             -128.65934     -1461575.1    
      4910   1.2710353e-06 -128.65932      0             -128.65932     -1461577.2    
      4920   5.0552718e-07 -128.65932      0             -128.65932     -1461574.4    
      4930   2.9377512e-06 -128.65934      0             -128.65934     -1461574.2    
      4940   1.4835456e-06 -128.65933      0             -128.65933     -1461572      
      4950   8.0241842e-07 -128.65932      0             -128.65932     -1461573.3    
      4960   6.0700318e-06 -128.65932      0             -128.65932     -1461572.5    
      4970   1.3619241e-07 -128.65932      0             -128.65932     -1461574.6    
      4980   1.2715699e-06 -128.65934      0             -128.65934     -1461574.2    
      4990   3.046629e-07  -128.65933      0             -128.65933     -1461574.7    
      5000   2.7242649e-07 -128.65932      0             -128.65932     -1461574      
      5010   2.2638286e-06 -128.65933      0             -128.65933     -1461574.5    
      5020   4.5827934e-07 -128.65932      0             -128.65932     -1461574.3    
      5030   7.8860686e-09 -128.65933      0             -128.65933     -1461573.8    
      5040   1.8204199e-07 -128.65932      0             -128.65932     -1461572.8    
      5050   1.2492202e-06 -128.65933      0             -128.65933     -1461571.8    
      5060   2.5805584e-07 -128.65933      0             -128.65933     -1461571.4    
      5070   1.4966931e-08 -128.65933      0             -128.65933     -1461573      
      5080   1.8412544e-07 -128.65933      0             -128.65933     -1461572.8    
      5090   1.2747555e-06 -128.65932      0             -128.65932     -1461573.1    
      5100   1.980359e-06  -128.65933      0             -128.65933     -1461568      
      5110   9.653598e-09  -128.65933      0             -128.65933     -1461572.3    
      5120   1.1086973e-07 -128.65933      0             -128.65933     -1461572.3    
      5130   1.0619259e-06 -128.65933      0             -128.65933     -1461573.8    
      5140   6.2716424e-10 -128.65932      0             -128.65932     -1461572.2    
      5150   8.7456567e-09 -128.65932      0             -128.65932     -1461572      
      5160   7.2195844e-08 -128.65932      0             -128.65932     -1461572.2    
      5170   3.6585774e-09 -128.65932      0             -128.65932     -1461572      
      5180   1.4505559e-08 -128.65932      0             -128.65932     -1461571.8    
      5190   3.8309299e-10 -128.65932      0             -128.65932     -1461571.9    
      5200   4.2460671e-09 -128.65932      0             -128.65932     -1461572      
      5210   3.9429397e-08 -128.65932      0             -128.65932     -1461571.9    
      5220   8.480071e-10  -128.65932      0             -128.65932     -1461572      
      5230   7.5010317e-09 -128.65934      0             -128.65934     -1461572      
      5240   7.6319375e-11 -128.65932      0             -128.65932     -1461571.8    
      5250   8.979814e-11  -128.65932      0             -128.65932     -1461572      
      5260   1.108641e-09  -128.65932      0             -128.65932     -1461571.9    
      5270   7.7891736e-09 -128.65933      0             -128.65933     -1461571.9    
      5280   2.5163e-10    -128.65933      0             -128.65933     -1461571.9    
      5290   2.0024535e-09 -128.65933      0             -128.65933     -1461571.9    
      5300   7.8814974e-09 -128.65932      0             -128.65932     -1461571.7    
      5310   3.9972267e-10 -128.65932      0             -128.65932     -1461571.9    
      5320   3.8839753e-09 -128.65934      0             -128.65934     -1461571.9    
      5330   2.18707e-09   -128.65932      0             -128.65932     -1461572      
      5340   2.4618514e-10 -128.65932      0             -128.65932     -1461571.9    
      5350   4.9692406e-11 -128.65932      0             -128.65932     -1461571.9    
      5360   3.0544857e-10 -128.65932      0             -128.65932     -1461571.9    
      5370   1.9997793e-11 -128.65932      0             -128.65932     -1461571.9    
      5380   5.4334893e-11 -128.65932      0             -128.65932     -1461571.9    
      5390   4.512229e-10  -128.65932      0             -128.65932     -1461571.9    
      5400   2.0035672e-11 -128.65932      0             -128.65932     -1461571.9    
      5410   5.7027855e-12 -128.65932      0             -128.65932     -1461571.9    
      5420   6.1943028e-11 -128.65932      0             -128.65932     -1461571.9    
      5430   4.3448226e-10 -128.65932      0             -128.65932     -1461571.9    
      5440   3.9827301e-12 -128.65932      0             -128.65932     -1461571.8    
      5450   8.2244203e-11 -128.65932      0             -128.65932     -1461571.8    
      5460   3.6403068e-11 -128.65932      0             -128.65932     -1461571.9    
      5470   1.9259384e-11 -128.65932      0             -128.65932     -1461571.8    
      5480   1.8849208e-11 -128.65932      0             -128.65932     -1461571.8    
      5490   5.2425131e-12 -128.65932      0             -128.65932     -1461571.8    
      5500   5.7195503e-11 -128.65932      0             -128.65932     -1461571.8    
      5510   5.9067231e-11 -128.65932      0             -128.65932     -1461571.8    
      5520   1.0220744e-11 -128.65932      0             -128.65932     -1461571.8    
      5530   4.683376e-12  -128.65932      0             -128.65932     -1461571.8    
      5540   4.5556761e-12 -128.65932      0             -128.65932     -1461571.8    
      5550   1.8781466e-12 -128.65932      0             -128.65932     -1461571.8    
      5560   1.0156617e-11 -128.65932      0             -128.65932     -1461571.8    
      5570   6.4961349e-12 -128.65932      0             -128.65932     -1461571.8    
      5580   9.7330671e-15 -128.65932      0             -128.65932     -1461571.8    
      5590   1.1830151e-12 -128.65932      0             -128.65932     -1461571.8    
      5600   9.2097122e-12 -128.65932      0             -128.65932     -1461571.8    
      5610   7.1113871e-12 -128.65932      0             -128.65932     -1461571.8    
      5620   1.2847367e-12 -128.65932      0             -128.65932     -1461571.8    
      5630   3.9452341e-13 -128.65932      0             -128.65932     -1461571.8    
      5640   4.5008366e-12 -128.65932      0             -128.65932     -1461571.8    
      5650   1.8536977e-12 -128.65932      0             -128.65932     -1461571.8    
      5660   1.4021755e-14 -128.65932      0             -128.65932     -1461571.8    
      5670   6.0577709e-13 -128.65932      0             -128.65932     -1461571.8    
Loop time of 35.805 on 1 procs for 5670 steps with 8 atoms

99.8% CPU use with 1 MPI tasks x 1 OpenMP threads

Minimization stats:
  Stopping criterion = energy tolerance
  Energy initial, next-to-last, final = 
     -2.78311430191807  -128.659320402587  -128.659320402494
  Force two-norm initial, final = 64.137163 9.182091e-07
  Force max component initial, final = 42.565375 4.8176542e-07
  Final line search alpha, max atom move = 0 0
  Iterations, force evaluations = 5670 6125

MPI task timing breakdown:
Section |  min time  |  avg time  |  max time  |%varavg| %total
---------------------------------------------------------------
Pair    | 35.702     | 35.702     | 35.702     |   0.0 | 99.71
Neigh   | 0.00082194 | 0.00082194 | 0.00082194 |   0.0 |  0.00
Comm    | 0.071237   | 0.071237   | 0.071237   |   0.0 |  0.20
Output  | 0.0057459  | 0.0057459  | 0.0057459  |   0.0 |  0.02
Modify  | 0          | 0          | 0          |   0.0 |  0.00
Other   |            | 0.02521    |            |       |  0.07

Nlocal:              8 ave           8 max           8 min
Histogram: 1 0 0 0 0 0 0 0 0 0
Nghost:           3016 ave        3016 max        3016 min
Histogram: 1 0 0 0 0 0 0 0 0 0
Neighs:             67 ave          67 max          67 min
Histogram: 1 0 0 0 0 0 0 0 0 0
FullNghs:         6674 ave        6674 max        6674 min
Histogram: 1 0 0 0 0 0 0 0 0 0

Total # of neighbors = 6674
Ave neighs/atom = 834.25
Neighbor list builds = 6
Dangerous builds = 0
write_data ./StructureDump/sample.4.dat 
System init for write_data ...
variable etot equal etotal
variable ptot equal press
variable pairp equal epair
variable numat equal atoms
run 0
WARNING: No fixes with time integration, atoms won't move (src/verlet.cpp:60)
Per MPI rank memory allocation (min/avg/max) = 4 | 4 | 4 Mbytes
   Step          Temp          E_pair         E_mol          TotEng         Press     
      5670   6.0577709e-13 -128.65932      0             -128.65932     -1461571.8    
Loop time of 3.7894e-05 on 1 procs for 0 steps with 8 atoms

116.1% CPU use with 1 MPI tasks x 1 OpenMP threads

MPI task timing breakdown:
Section |  min time  |  avg time  |  max time  |%varavg| %total
---------------------------------------------------------------
Pair    | 0          | 0          | 0          |   0.0 |  0.00
Neigh   | 0          | 0          | 0          |   0.0 |  0.00
Comm    | 0          | 0          | 0          |   0.0 |  0.00
Output  | 0          | 0          | 0          |   0.0 |  0.00
Modify  | 0          | 0          | 0          |   0.0 |  0.00
Other   |            | 3.789e-05  |            |       |100.00

Nlocal:              8 ave           8 max           8 min
Histogram: 1 0 0 0 0 0 0 0 0 0
Nghost:           2950 ave        2950 max        2950 min
Histogram: 1 0 0 0 0 0 0 0 0 0
Neighs:             67 ave          67 max          67 min
Histogram: 1 0 0 0 0 0 0 0 0 0
FullNghs:         6678 ave        6678 max        6678 min
Histogram: 1 0 0 0 0 0 0 0 0 0

Total # of neighbors = 6678
Ave neighs/atom = 834.75
Neighbor list builds = 0
Dangerous builds = 0
print "${etot} ${pairp} ${ptot} ${numat} " append Summary.dat screen no
Total wall time: 0:00:35
