mass 1 51.996100
pair_style hybrid/overlay soft 1.5 mliap model mliappy LATER descriptor ace coupling_coefficients.yace
Loading python model deferred.
pair_coeff * * soft 100.0
pair_coeff * * mliap   Cr

thermo 10
velocity all create 0.0001 4928459 dist gaussian
Loading python model complete.
min_style  fire
min_modify integrator eulerexplicit tmax 10.0 tmin 0.0 delaystep 5 dtgrow 1.1 dtshrink 0.5 alpha0 0.1 alphashrink 0.99 vdfmax 100000 halfstepback no initialdelay no
minimize 1e-12 1e-12 10000 100000
Neighbor list info ...
  update: every = 1 steps, delay = 0 steps, check = yes
  max neighbors/atom: 2000, page size: 100000
  master list distance cutoff = 13.209389
  ghost atom cutoff = 13.209389
  binsize = 6.6046944, bins = 1 1 1
  2 neighbor lists, perpetual/occasional/extra = 2 0 0
  (1) pair soft, perpetual, half/full trim from (2)
      attributes: half, newton on, cut 3.5
      pair build: halffull/trim/newton
      stencil: none
      bin: none
  (2) pair mliap, perpetual
      attributes: full, newton on
      pair build: full/bin/atomonly
      stencil: full/bin/3d
      bin: standard
  Parameters for fire:
    dmax  delaystep dtgrow dtshrink alpha0 alphashrink tmax tmin   integrator   halfstepback   abcfire  
     0.1      5      1.1     0.5     0.1      0.99      10   0   eulerexplicit       no          no     
Per MPI rank memory allocation (min/avg/max) = 3.993 | 3.993 | 3.993 Mbytes
   Step          Temp          E_pair         E_mol          TotEng         Press     
         0   0             -5.7629905      0             -5.7629905      94633.818    
        10   12.625503     -5.7732472      0             -5.7618234      93973.94     
        20   241.11393     -5.9691768      0             -5.7510118     -3514.2577    
        30   8545.441      -13.269795      0             -5.5377007     -231529.42    
        40   360.94207     -15.049795      0             -14.723207     -261295.27    
        50   1212.6282     -16.282582      0             -15.18537      -396689.63    
        60   281.56454     -16.435323      0             -16.180557     -411531.76    
        70   878.95909     -16.973648      0             -16.178347     -393495.43    
        80   57.649087     -17.917923      0             -17.865761     -365699.85    
        90   61.50315      -18.040029      0             -17.98438      -437747.1     
       100   475.96638     -18.841259      0             -18.410594     -440278.6     
       110   8.0687845     -19.049193      0             -19.041893     -431891.04    
       120   99.469906     -19.140212      0             -19.050209     -382067       
       130   40.228552     -19.126644      0             -19.090244     -400441.06    
       140   49.329874     -19.34555       0             -19.300916     -411057.82    
       150   230.00011     -19.506305      0             -19.298197     -387982.18    
       160   258.1308      -19.814567      0             -19.581005     -294633.73    
       170   114.8247      -19.907656      0             -19.80376      -347416.94    
       180   43.231351     -20.152965      0             -20.113848     -346752.79    
       190   190.82764     -20.181824      0             -20.00916      -364775.17    
       200   381.35209     -20.931786      0             -20.586731     -50384.465    
       210   213.35011     -22.151817      0             -21.958774     -345111.48    
       220   1612.3331     -21.010922      0             -19.552049     -214546.32    
       230   106.45031     -21.535513      0             -21.439194     -353936.35    
       240   513.91993     -21.590567      0             -21.125561     -278352.94    
       250   15.871973     -21.752251      0             -21.737889     -336481.04    
       260   167.19607     -21.886467      0             -21.735184     -375713.58    
       270   953.98016     -23.872436      0             -23.009255     -186149.4     
       280   320.0433      -26.113992      0             -25.824411     -600877.49    
       290   3991.4976     -28.748478      0             -25.136887     -489137.52    
       300   9947.895      -34.703186      0             -25.702122     -777234.38    
       310   2788.1399     -35.567058      0             -33.044291     -879371.31    
       320   1835.4313     -37.456722      0             -35.795985     -777490.29    
       330   3756.4593     -38.169345      0             -34.770422     -568296.57    
       340   189.30753     -39.516722      0             -39.345432     -835818.25    
       350   32.368265     -39.611258      0             -39.581971     -781156.23    
       360   180.68628     -39.749786      0             -39.586297     -721909.45    
       370   61.161488     -38.25324       0             -38.197899     -404343.15    
       380   161.33238     -38.53997       0             -38.393994     -539270.07    
       390   932.44111     -39.168982      0             -38.325289     -665904.77    
       400   36.353614     -39.427798      0             -39.394905     -684765.87    
       410   339.99054     -39.701955      0             -39.394325     -645266.06    
       420   42.595488     -41.062137      0             -41.023596     -828208.31    
       430   112.58891     -41.303638      0             -41.201766     -785473.22    
       440   787.3278      -41.846292      0             -41.133902     -784872.59    
       450   32.221312     -42.014764      0             -41.98561      -747813.34    
       460   198.73161     -42.167827      0             -41.98801      -789162.48    
       470   192.3889      -42.50549       0             -42.331412     -830169.18    
       480   46.677264     -42.543416      0             -42.501182     -831775.68    
       490   300.42889     -42.770274      0             -42.498439     -836170.18    
       500   2.3131216     -43.030655      0             -43.028562     -885178.56    
       510   62.237718     -43.082821      0             -43.026507     -863652.03    
       520   8.8460743     -43.32454       0             -43.316536     -960125.49    
       530   20.444957     -43.371967      0             -43.353468     -925713.44    
       540   136.25461     -43.470736      0             -43.34745      -931860.28    
       550   3.5059632     -43.503177      0             -43.500005     -924890.11    
       560   36.871424     -43.532995      0             -43.499633     -942175.12    
       570   5.0635477     -43.672945      0             -43.668363     -923945.05    
       580   13.475031     -43.697484      0             -43.685292     -963032.1     
       590   76.741173     -43.751444      0             -43.682007     -991177.06    
       600   2.0168793     -43.771234      0             -43.76941      -987594.04    
       610   21.042202     -43.788272      0             -43.769232     -978053.6     
       620   1.9391183     -43.869655      0             -43.8679       -1019293.8    
       630   5.0385834     -43.881661      0             -43.877102     -1002043.5    
       640   41.607233     -43.914344      0             -43.876697     -1003465.1    
       650   0.2349511     -43.955363      0             -43.95515      -1027486.7    
       660   8.4212063     -43.962951      0             -43.955331     -1003856.4    
       670   4.2677358     -43.9885        0             -43.984639     -1017216.5    
       680   2.6197653     -43.991618      0             -43.989247     -1021655.1    
       690   18.196676     -44.006241      0             -43.989776     -1030988.4    
       700   0.054597105   -44.03289       0             -44.03284      -1026696      
       710   4.1886654     -44.03651       0             -44.03272      -1036061.1    
       720   39.872843     -44.061139      0             -44.025061     -1031151.1    
       730   1.374488      -44.063779      0             -44.062536     -1040131.9    
       740   8.9057432     -44.070789      0             -44.062731     -1046851.7    
       750   0.28948678    -44.075824      0             -44.075563     -1046739.8    
       760   2.6732751     -44.078109      0             -44.07569      -1040004.3    
       770   1.5556027     -44.085507      0             -44.084099     -1042757      
       780   0.74865335    -44.086507      0             -44.085829     -1046490.6    
       790   5.3218791     -44.090779      0             -44.085963     -1050724.7    
       800   10.818897     -44.099324      0             -44.089534     -1041623.5    
       810   0.10244943    -44.10162       0             -44.101528     -1055084.4    
       820   0.93545376    -44.102441      0             -44.101595     -1050059.4    
       830   6.2858712     -44.106747      0             -44.10106      -1048260.7    
       840   0.10247887    -44.111108      0             -44.111015     -1052242.5    
       850   1.37895       -44.112276      0             -44.111028     -1058202.4    
       860   0.55463384    -44.115211      0             -44.114709     -1057661.2    
       870   5.1435226     -44.118126      0             -44.113472     -1060782.5    
       880   0.27056779    -44.119143      0             -44.118898     -1060631.8    
       890   1.62732       -44.120334      0             -44.118861     -1062630.7    
       900   0.0069033341  -44.122239      0             -44.122233     -1063216.4    
       910   0.43394963    -44.122623      0             -44.12223      -1059274.3    
       920   3.0593798     -44.12486       0             -44.122092     -1056879.4    
       930   1.0865724     -44.127356      0             -44.126373     -1062430.4    
       940   0.028492395   -44.127993      0             -44.127968     -1063044      
       950   0.43895806    -44.128362      0             -44.127964     -1065549.4    
       960   3.5260953     -44.131083      0             -44.127892     -1066335.7    
       970   0.31520303    -44.131879      0             -44.131593     -1067929.2    
       980   0.11237039    -44.132032      0             -44.13193      -1065949.9    
       990   0.69030408    -44.132551      0             -44.131927     -1066692      
      1000   0.30552544    -44.134326      0             -44.13405      -1061331.4    
      1010   0.6968127     -44.135385      0             -44.134754     -1067565.6    
      1020   0.14250838    -44.135495      0             -44.135366     -1069264.9    
      1030   0.82508674    -44.136139      0             -44.135393     -1068016.5    
      1040   0.31678342    -44.137856      0             -44.137569     -1071844.6    
      1050   0.20795049    -44.138024      0             -44.137836     -1069882.1    
      1060   1.8578054     -44.139512      0             -44.137831     -1069542.4    
      1070   0.52647066    -44.140398      0             -44.139922     -1070199.2    
      1080   0.043628301   -44.140551      0             -44.140511     -1073093.3    
      1090   0.41112877    -44.140876      0             -44.140504     -1073069.5    
      1100   2.8028651     -44.142966      0             -44.14043      -1077413.8    
      1110   0.10557848    -44.143649      0             -44.143554     -1074526.2    
      1120   1.0524344     -44.144408      0             -44.143456     -1073905.9    
      1130   0.03103448    -44.145507      0             -44.145479     -1075993.6    
      1140   0.42538371    -44.145841      0             -44.145457     -1075833.2    
      1150   0.7226839     -44.147087      0             -44.146433     -1077356.9    
      1160   0.0038218113  -44.147157      0             -44.147154     -1076741.9    
      1170   0.090114939   -44.147235      0             -44.147154     -1077612.6    
      1180   0.78427464    -44.147835      0             -44.147125     -1078400.4    
      1190   0.0038621795  -44.149302      0             -44.149299     -1077676.9    
      1200   0.24865509    -44.149502      0             -44.149277     -1079074.4    
      1210   0.62581656    -44.149208      0             -44.148641     -1070003.8    
      1220   0.10334864    -44.150707      0             -44.150613     -1078224.7    
      1230   0.035126177   -44.151122      0             -44.15109      -1076682.5    
      1240   0.033093867   -44.151315      0             -44.151285     -1080086.2    
      1250   0.37322412    -44.151618      0             -44.151281     -1080760.6    
      1260   0.35785186    -44.152883      0             -44.152559     -1079324.4    
      1270   0.11108627    -44.153014      0             -44.152914     -1079887.5    
      1280   0.1001523     -44.153439      0             -44.153349     -1080701.6    
      1290   0.063843586   -44.153494      0             -44.153436     -1081257.9    
      1300   0.37223783    -44.153791      0             -44.153455     -1082717      
      1310   0.008307725   -44.154295      0             -44.154288     -1079597.7    
      1320   0.0086312847  -44.154407      0             -44.154399     -1082977.7    
      1330   0.077546807   -44.154474      0             -44.154403     -1081484.1    
      1340   0.53978541    -44.154891      0             -44.154403     -1080548.8    
      1350   0.021793574   -44.155205      0             -44.155185     -1082050.1    
      1360   0.20052477    -44.15536       0             -44.155179     -1082097.1    
      1370   0.76946877    -44.155847      0             -44.15515      -1079307.6    
      1380   0.063405504   -44.15611       0             -44.156052     -1082923      
      1390   0.67423724    -44.156654      0             -44.156044     -1083551      
      1400   0.49298795    -44.157248      0             -44.156802     -1087184      
      1410   0.056213852   -44.157418      0             -44.157367     -1084044.6    
      1420   0.18593284    -44.157546      0             -44.157378     -1082815.7    
      1430   0.059147718   -44.157737      0             -44.157684     -1082981.8    
      1440   0.046164093   -44.158017      0             -44.157976     -1083108.1    
      1450   0.026403562   -44.158075      0             -44.158051     -1084390.9    
      1460   0.28259482    -44.1583        0             -44.158045     -1084565.1    
      1470   1.1280162     -44.158974      0             -44.157953     -1087497.4    
      1480   0.0057276886  -44.159063      0             -44.159058     -1084886.2    
      1490   0.077523846   -44.159129      0             -44.159059     -1085287.6    
      1500   0.58409615    -44.15958       0             -44.159052     -1083930.2    
      1510   0.017168674   -44.159875      0             -44.15986      -1085635.3    
      1520   0.22454825    -44.160058      0             -44.159855     -1085635.5    
      1530   0.0053063916  -44.160332      0             -44.160327     -1086754.8    
      1540   0.090630466   -44.160401      0             -44.160319     -1085745.5    
      1550   0.12527855    -44.160603      0             -44.16049      -1086346.7    
      1560   0.028375147   -44.160624      0             -44.160598     -1085977.1    
      1570   0.2888761     -44.160849      0             -44.160587     -1085812.6    
      1580   0.0060395591  -44.161289      0             -44.161284     -1087257.6    
      1590   0.1108928     -44.161365      0             -44.161264     -1087177      
      1600   0.00051585492 -44.161499      0             -44.161498     -1087367.8    
      1610   0.033628664   -44.161531      0             -44.1615       -1086206.8    
      1620   0.2531687     -44.161721      0             -44.161492     -1085230.6    
      1630   0.040268322   -44.161881      0             -44.161845     -1086146.5    
      1640   0.0085146806  -44.1619        0             -44.161892     -1087260.6    
      1650   0.063675745   -44.161951      0             -44.161894     -1086957.4    
      1660   0.0061578561  -44.162209      0             -44.162203     -1088326.2    
      1670   0.017882114   -44.162244      0             -44.162228     -1087292.8    
      1680   0.15058051    -44.162365      0             -44.162229     -1087043.9    
      1690   0.0012034143  -44.162604      0             -44.162603     -1087537.4    
      1700   0.059748923   -44.162652      0             -44.162598     -1087480      
      1710   0.54549187    -44.163064      0             -44.16257      -1086927.9    
      1720   2.7884589     -44.163395      0             -44.160872     -1089507.1    
      1730   0.00039015512 -44.163442      0             -44.163442     -1087823.9    
      1740   0.014304988   -44.163449      0             -44.163436     -1088241.5    
      1750   0.10229994    -44.163532      0             -44.16344      -1087825.9    
      1760   0.17170147    -44.163827      0             -44.163671     -1089784.5    
      1770   0.028056529   -44.163871      0             -44.163846     -1089136.4    
      1780   0.011025915   -44.163974      0             -44.163964     -1088610.3    
      1790   0.12545189    -44.16406       0             -44.163946     -1089250.6    
      1800   0.065248146   -44.164132      0             -44.164073     -1088583.2    
      1810   0.026375231   -44.164161      0             -44.164137     -1089183.2    
      1820   0.021838157   -44.164261      0             -44.164241     -1088894.1    
      1830   0.014292288   -44.164269      0             -44.164256     -1088676.9    
      1840   0.088280343   -44.164341      0             -44.164261     -1088179.3    
      1850   0.0020111296  -44.164465      0             -44.164464     -1089947.1    
      1860   0.002054633   -44.164488      0             -44.164486     -1088305.1    
      1870   0.018618532   -44.164506      0             -44.164489     -1089053.2    
      1880   0.13020807    -44.164607      0             -44.16449      -1089711.7    
      1890   0.0049224099  -44.164683      0             -44.164679     -1089109.6    
      1900   0.048324445   -44.164722      0             -44.164679     -1089153.7    
      1910   0.15866877    -44.164846      0             -44.164703     -1090773.5    
      1920   0.015523522   -44.164907      0             -44.164892     -1089063.6    
      1930   0.1709068     -44.165042      0             -44.164887     -1088953.6    
      1940   0.1650032     -44.164587      0             -44.164437     -1095735.6    
      1950   0.032120766   -44.165375      0             -44.165346     -1089450.4    
      1960   0.0069122441  -44.165377      0             -44.16537      -1089494.3    
      1970   0.035253515   -44.165408      0             -44.165376     -1089470.3    
      1980   0.019697943   -44.165482      0             -44.165464     -1090970.4    
      1990   0.0443893     -44.165541      0             -44.165501     -1089872.1    
      2000   0.010184261   -44.165553      0             -44.165544     -1089362.2    
      2010   0.043647166   -44.165587      0             -44.165548     -1089899.3    
      2020   0.013038778   -44.165683      0             -44.165671     -1089285.3    
      2030   0.024100504   -44.165722      0             -44.1657       -1089689.8    
      2040   0.0060999188  -44.165724      0             -44.165719     -1089560.4    
      2050   0.052481267   -44.165766      0             -44.165718     -1089364.5    
      2060   0.17844738    -44.165921      0             -44.16576      -1090915.8    
      2070   0.00078233496 -44.165948      0             -44.165948     -1089782.8    
      2080   0.013845127   -44.165959      0             -44.165947     -1089581.4    
      2090   0.11854739    -44.166048      0             -44.165941     -1089897.5    
      2100   0.0025184449  -44.166137      0             -44.166134     -1089844.2    
      2110   0.041253066   -44.166165      0             -44.166128     -1090001.5    
      2120   0.15164335    -44.166314      0             -44.166177     -1088957.5    
      2130   0.0016237558  -44.166331      0             -44.16633      -1089616      
      2140   0.013759449   -44.166341      0             -44.166329     -1090114.3    
      2150   0.12366294    -44.16642       0             -44.166308     -1089704.9    
      2160   0.040329259   -44.166445      0             -44.166409     -1090266.3    
      2170   0.0022456231  -44.166453      0             -44.166451     -1089930.3    
      2180   0.022779513   -44.166467      0             -44.166447     -1089904.3    
      2190   0.1696111     -44.16659       0             -44.166437     -1090634.9    
      2200   0.5205577     -44.166693      0             -44.166222     -1090229.3    
      2210   0.0058249302  -44.166704      0             -44.166698     -1090106.3    
      2220   0.052514557   -44.166744      0             -44.166696     -1090053.7    
      2230   0.00022115887 -44.166842      0             -44.166841     -1090287.9    
      2240   0.017850907   -44.16686       0             -44.166844     -1090160.7    
      2250   0.01201464    -44.166928      0             -44.166917     -1090008.1    
      2260   7.178068e-05  -44.166935      0             -44.166935     -1090003      
      2270   0.0054557648  -44.166939      0             -44.166934     -1090334.1    
      2280   0.035817671   -44.166966      0             -44.166933     -1090275.3    
      2290   0.0016966813  -44.167003      0             -44.167002     -1091189.9    
      2300   0.00046584633 -44.167024      0             -44.167023     -1090155.3    
      2310   0.0067625592  -44.167025      0             -44.167019     -1090314.8    
      2320   0.055987986   -44.167072      0             -44.167021     -1090360.9    
      2330   0.60216239    -44.167021      0             -44.166476     -1093599.5    
      2340   0.0013446682  -44.16721       0             -44.167209     -1090295.9    
      2350   0.017088796   -44.167225      0             -44.167209     -1090266.4    
      2360   0.13150535    -44.167303      0             -44.167184     -1090747      
      2370   4.5915901e-05 -44.167327      0             -44.167327     -1090470.8    
      2380   0.0040708681  -44.167329      0             -44.167326     -1090230.5    
      2390   0.032288247   -44.167353      0             -44.167324     -1090171.4    
      2400   0.0013283436  -44.167384      0             -44.167383     -1089923      
      2410   0.00084826914 -44.167388      0             -44.167388     -1090562      
      2420   0.0060444068  -44.167395      0             -44.16739      -1090142.9    
      2430   0.041975341   -44.167424      0             -44.167386     -1089805.9    
      2440   0.011990004   -44.167448      0             -44.167437     -1089925      
      2450   0.0020178032  -44.167456      0             -44.167454     -1090514.6    
      2460   0.010368958   -44.167464      0             -44.167455     -1090323.7    
      2470   0.063510083   -44.167485      0             -44.167427     -1091747.4    
      2480   0.027814605   -44.167517      0             -44.167491     -1090465      
      2490   0.0014868238  -44.167516      0             -44.167514     -1090387.7    
      2500   0.014593349   -44.167529      0             -44.167516     -1090452.8    
      2510   0.089561507   -44.167587      0             -44.167506     -1089251.2    
      2520   2.3570945e-05 -44.167647      0             -44.167647     -1090469.3    
      2530   0.0035529017  -44.167652      0             -44.167649     -1090383      
      2540   0.035515659   -44.167679      0             -44.167647     -1090338      
      2550   0.2244592     -44.167695      0             -44.167492     -1088170      
      2560   0.0010269625  -44.16777       0             -44.167769     -1090478.2    
      2570   0.011384348   -44.167781      0             -44.167771     -1090535.9    
      2580   0.12696757    -44.167796      0             -44.167681     -1088609.9    
      2590   0.00012583716 -44.167849      0             -44.167849     -1090245.5    
      2600   0.0032295405  -44.167848      0             -44.167845     -1090551.5    
      2610   0.024950351   -44.167869      0             -44.167846     -1090765.3    
      2620   0.0027207158  -44.167888      0             -44.167885     -1090794.6    
      2630   0.00065613176 -44.167892      0             -44.167891     -1090300.7    
      2640   0.0054305722  -44.167897      0             -44.167892     -1090490.2    
      2650   0.042220728   -44.167931      0             -44.167893     -1090084.6    
      2660   0.0020795323  -44.167952      0             -44.16795      -1090309.2    
      2670   0.013151005   -44.167961      0             -44.167949     -1089985      
      2680   0.00040917314 -44.167977      0             -44.167976     -1090220.3    
      2690   0.0052362347  -44.16798       0             -44.167975     -1090487.6    
      2700   0.049380262   -44.168006      0             -44.167962     -1089710.2    
      2710   0.0059346488  -44.168014      0             -44.168009     -1090352.9    
      2720   0.0013288053  -44.168012      0             -44.168011     -1090342.4    
      2730   0.0093932819  -44.168021      0             -44.168012     -1090241.6    
      2740   0.0046670162  -44.168048      0             -44.168044     -1090277.5    
      2750   0.0025478495  -44.168049      0             -44.168046     -1090241.7    
      2760   0.021846519   -44.168065      0             -44.168046     -1089944.4    
      2770   0.00050802873 -44.168083      0             -44.168082     -1090318.5    
      2780   0.010530465   -44.168094      0             -44.168084     -1090290.6    
      2790   0.10368377    -44.168162      0             -44.168068     -1090632      
      2800   0.0010381128  -44.168174      0             -44.168173     -1089751.6    
      2810   0.00019643737 -44.168182      0             -44.168182     -1090405.1    
      2820   0.0023583326  -44.168181      0             -44.168179     -1090182.3    
      2830   0.018268222   -44.168195      0             -44.168178     -1090078.8    
      2840   0.00012627244 -44.168233      0             -44.168233     -1090458.9    
      2850   0.0068780071  -44.168236      0             -44.16823      -1090188.5    
      2860   0.0030180168  -44.168248      0             -44.168245     -1090359.5    
      2870   0.0039210501  -44.168256      0             -44.168253     -1090104.7    
      2880   0.0013833695  -44.168255      0             -44.168254     -1090244.8    
      2890   0.0082390647  -44.168264      0             -44.168256     -1090368.3    
      2900   0.0093976211  -44.168282      0             -44.168274     -1090258.5    
      2910   0.0027488219  -44.168282      0             -44.16828      -1090414.9    
      2920   0.00029877286 -44.168303      0             -44.168302     -1090463.9    
      2930   0.0009160265  -44.168299      0             -44.168298     -1090107.5    
      2940   0.0075458517  -44.168309      0             -44.168302     -1090042.5    
      2950   0.0034276061  -44.16833       0             -44.168326     -1090091.1    
      2960   0.0022299953  -44.168333      0             -44.168331     -1090019.1    
      2970   0.018685947   -44.168345      0             -44.168328     -1089680.4    
      2980   0.0010433942  -44.168361      0             -44.16836      -1089994.6    
      2990   0.0079173514  -44.168361      0             -44.168354     -1089901.8    
      3000   5.5685982e-05 -44.168375      0             -44.168374     -1089850.6    
      3010   0.0025552026  -44.168376      0             -44.168374     -1090269.1    
      3020   0.00037972422 -44.16839       0             -44.16839      -1090419.4    
      3030   0.00095335123 -44.168391      0             -44.16839      -1090000.2    
      3040   0.0070573483  -44.168395      0             -44.168389     -1089946.1    
      3050   0.015875269   -44.168417      0             -44.168403     -1089451      
      3060   3.1214222e-05 -44.168426      0             -44.168426     -1089953.9    
      3070   0.0013473938  -44.168423      0             -44.168421     -1090054.8    
      3080   0.011994788   -44.168431      0             -44.168421     -1090007.6    
      3090   0.0061500586  -44.168469      0             -44.168464     -1089899.5    
      3100   0.0035717319  -44.168468      0             -44.168465     -1090024      
      3110   0.03051651    -44.168489      0             -44.168462     -1089275.2    
      3120   0.0078302552  -44.168507      0             -44.1685       -1090028.4    
      3130   0.0014204608  -44.16851       0             -44.168508     -1089866.6    
      3140   0.012131547   -44.168524      0             -44.168513     -1089893.5    
      3150   0.012167565   -44.168553      0             -44.168542     -1090032.4    
      3160   0.0041717164  -44.168556      0             -44.168553     -1089718.2    
      3170   0.0036192019  -44.16857       0             -44.168566     -1089860      
      3180   0.0018627279  -44.168569      0             -44.168567     -1089736.4    
      3190   0.014052476   -44.168579      0             -44.168566     -1089737.6    
      3200   0.00093542378 -44.168589      0             -44.168588     -1089402.3    
      3210   0.00036948832 -44.168595      0             -44.168594     -1089905      
      3220   0.0028730242  -44.168596      0             -44.168593     -1089678.7    
      3230   0.021782761   -44.168615      0             -44.168596     -1089589.5    
      3240   0.00092171217 -44.168619      0             -44.168618     -1089686.2    
      3250   0.0072651596  -44.168629      0             -44.168622     -1089554.2    
      3260   0.037119745   -44.16865       0             -44.168616     -1089745.9    
      3270   0.0028281133  -44.168647      0             -44.168644     -1089654      
      3280   0.02898152    -44.168671      0             -44.168645     -1089915      
      3290   0.015152145   -44.168691      0             -44.168678     -1089750      
      3300   0.0017847659  -44.168693      0             -44.168691     -1089650.9    
      3310   0.0087879872  -44.1687        0             -44.168692     -1089395.4    
      3320   0.037116931   -44.168712      0             -44.168679     -1090374.6    
      3330   0.00012977057 -44.168723      0             -44.168723     -1089479.7    
      3340   0.0018957869  -44.168721      0             -44.168719     -1089623.2    
      3350   0.015398705   -44.168736      0             -44.168722     -1089692.6    
      3360   0.00078761984 -44.168764      0             -44.168764     -1088865.3    
      3370   0.00040957795 -44.168765      0             -44.168765     -1089534      
      3380   0.0044482526  -44.168769      0             -44.168765     -1089479.1    
      3390   0.031053366   -44.168794      0             -44.168765     -1089903.4    
      3400   0.016269265   -44.168813      0             -44.168798     -1089254.4    
      3410   0.0013839717  -44.168813      0             -44.168812     -1089440.9    
      3420   0.010282191   -44.168819      0             -44.168809     -1089329.7    
      3430   0.0001875165  -44.168839      0             -44.168839     -1089721.5    
      3440   0.00018382942 -44.168838      0             -44.168838     -1089232.2    
      3450   0.0020727915  -44.168838      0             -44.168836     -1089429.9    
      3460   0.015546615   -44.168854      0             -44.16884      -1089550.5    
      3470   0.00038897601 -44.168877      0             -44.168877     -1089095.9    
      3480   0.0067641955  -44.168879      0             -44.168873     -1089121.6    
      3490   2.9648773e-05 -44.168888      0             -44.168888     -1089089.2    
      3500   0.0020583835  -44.168887      0             -44.168886     -1089356.5    
      3510   0.015988545   -44.168903      0             -44.168889     -1089580.4    
      3520   0.0024793392  -44.168915      0             -44.168913     -1089390.2    
      3530   0.00053526908 -44.168913      0             -44.168913     -1089120.8    
      3540   0.0041614632  -44.168918      0             -44.168915     -1089194.1    
      3550   0.024923825   -44.168934      0             -44.168911     -1088436.1    
      3560   0.0026236187  -44.168947      0             -44.168945     -1089127.8    
      3570   0.00059591525 -44.168954      0             -44.168953     -1088969.3    
      3580   0.0064231338  -44.16896       0             -44.168954     -1088944.9    
      3590   3.074786e-05  -44.16897       0             -44.16897      -1088910.2    
      3600   0.0020084104  -44.168965      0             -44.168963     -1089192.4    
      3610   0.015197594   -44.168983      0             -44.168969     -1089437.2    
      3620   0.0011665027  -44.16899       0             -44.168989     -1089153.9    
      3630   0.0067860116  -44.168997      0             -44.168991     -1089207.8    
      3640   3.8015387e-05 -44.169008      0             -44.169008     -1089186.7    
      3650   0.0020354952  -44.169007      0             -44.169005     -1088844.3    
      3660   0.014499913   -44.169019      0             -44.169005     -1088476.9    
      3670   0.0071056053  -44.16903       0             -44.169024     -1088828.9    
      3680   0.0030629062  -44.169033      0             -44.169031     -1088734.4    
      3690   0.0072570922  -44.169048      0             -44.169041     -1088728.7    
      3700   0.0014726231  -44.169046      0             -44.169044     -1088838.4    
      3710   0.013629667   -44.169054      0             -44.169041     -1088712.3    
      3720   0.00033892721 -44.169069      0             -44.169069     -1088748.4    
      3730   0.004994329   -44.169072      0             -44.169068     -1088820.4    
      3740   0.0026984704  -44.169092      0             -44.16909      -1088566.9    
      3750   0.0021304757  -44.169095      0             -44.169093     -1088644.7    
      3760   0.018088077   -44.1691        0             -44.169083     -1088329.3    
      3770   0.00046108425 -44.169106      0             -44.169106     -1088788.9    
      3780   0.0064282182  -44.169112      0             -44.169106     -1088805.4    
      3790   0.0012861648  -44.16914       0             -44.169139     -1088288      
      3800   0.0019986651  -44.16914       0             -44.169138     -1088561.8    
      3810   0.021353781   -44.169157      0             -44.169137     -1088183.3    
      3820   0.0010881973  -44.169164      0             -44.169163     -1088606.7    
      3830   0.0078406457  -44.169172      0             -44.169165     -1088409.7    
      3840   3.5590344e-05 -44.169192      0             -44.169192     -1088680.9    
      3850   0.0036354352  -44.169195      0             -44.169192     -1088534.2    
      3860   0.0011650494  -44.169213      0             -44.169212     -1088985.2    
      3870   0.0034693844  -44.169217      0             -44.169214     -1088677.4    
      3880   0.0012188278  -44.169215      0             -44.169214     -1088508.5    
      3890   0.0075871356  -44.169225      0             -44.169218     -1088648.8    
      3900   0.0086287777  -44.169238      0             -44.16923      -1088212.2    
      3910   0.0023243884  -44.169242      0             -44.16924      -1088694.8    
      3920   0.00073838268 -44.169253      0             -44.169252     -1088630.7    
      3930   0.0001592169  -44.169256      0             -44.169256     -1088701.2    
      3940   0.0061986262  -44.169258      0             -44.169252     -1088349.1    
      3950   5.631872e-05  -44.169268      0             -44.169268     -1088283.9    
      3960   0.0016067844  -44.169266      0             -44.169265     -1088486.3    
      3970   0.012983906   -44.169275      0             -44.169264     -1088517.1    
      3980   0.00074891299 -44.16929       0             -44.16929      -1088698.4    
      3990   0.00028013837 -44.169289      0             -44.169289     -1088249.2    
      4000   0.0025466872  -44.169294      0             -44.169292     -1088428.7    
      4010   0.019460855   -44.169307      0             -44.169289     -1088436.9    
      4020   0.00083083674 -44.169327      0             -44.169327     -1088130.3    
      4030   0.0070767003  -44.169335      0             -44.169329     -1087965      
      4040   0.00012155767 -44.169343      0             -44.169342     -1088079.4    
      4050   0.0026022214  -44.169341      0             -44.169339     -1088338.1    
      4060   0.023777954   -44.169361      0             -44.16934      -1088339      
      4070   0.0034313942  -44.169365      0             -44.169362     -1088265.3    
      4080   0.00071326356 -44.169368      0             -44.169367     -1088116.7    
      4090   0.0052858008  -44.169373      0             -44.169368     -1088105.5    
      4100   0.001667865   -44.16939       0             -44.169388     -1087898.2    
      4110   0.0014925129  -44.169389      0             -44.169388     -1088045.7    
      4120   0.013958404   -44.169403      0             -44.16939      -1087933      
      4130   0.0002068882  -44.169418      0             -44.169418     -1088024.9    
      4140   0.0059430459  -44.16942       0             -44.169415     -1088011.3    
      4150   0.046754288   -44.169454      0             -44.169412     -1088599.3    
      4160   0.00019741506 -44.169481      0             -44.169481     -1087406.6    
      4170   8.6773862e-05 -44.169486      0             -44.169486     -1088002.9    
      4180   0.0015551185  -44.169489      0             -44.169487     -1087818      
      4190   0.011927199   -44.169498      0             -44.169487     -1087825.6    
      4200   0.019102333   -44.169525      0             -44.169507     -1087999.9    
      4210   0.0040124931  -44.169528      0             -44.169524     -1087625      
      4220   0.0022389308  -44.169541      0             -44.169539     -1087775      
      4230   0.0021335281  -44.169544      0             -44.169542     -1087532.1    
      4240   0.00092735148 -44.169545      0             -44.169544     -1087809.6    
      4250   0.0059575143  -44.169555      0             -44.169549     -1087811.9    
      4260   0.0043390685  -44.169565      0             -44.169561     -1088023.8    
      4270   0.0025062206  -44.169576      0             -44.169573     -1087842.4    
      4280   0.020271689   -44.169584      0             -44.169566     -1087934.6    
      4290   0.00059731323 -44.169587      0             -44.169586     -1087572.2    
      4300   0.0054257194  -44.169589      0             -44.169584     -1087610.4    
      4310   0.0015617652  -44.169606      0             -44.169605     -1087412      
      4320   0.0016847037  -44.169611      0             -44.169609     -1087520.7    
      4330   0.01562579    -44.16962       0             -44.169605     -1087344.4    
      4340   0.00059239762 -44.169635      0             -44.169635     -1087391.8    
      4350   0.0063309025  -44.169637      0             -44.169632     -1087471      
      4360   0.004925824   -44.16965       0             -44.169645     -1087278.7    
      4370   0.0021670035  -44.169652      0             -44.16965      -1087657.6    
      4380   0.016947056   -44.169663      0             -44.169648     -1087819.8    
      4390   0.00067744183 -44.169665      0             -44.169664     -1087379      
      4400   0.005450859   -44.169666      0             -44.169661     -1087442.2    
      4410   0.0038815011  -44.169684      0             -44.16968      -1086566.1    
      4420   7.589877e-06  -44.169693      0             -44.169693     -1087331.9    
      4430   0.0010324305  -44.169695      0             -44.169694     -1087419.5    
      4440   0.0092099388  -44.169703      0             -44.169695     -1087334      
      4450   0.0032771436  -44.169734      0             -44.169731     -1087512.8    
      4460   0.0026510032  -44.169733      0             -44.16973      -1087381.1    
      4470   0.029437828   -44.16976       0             -44.169733     -1087043.9    
      4480   0.0076532563  -44.169781      0             -44.169774     -1087108      
      4490   0.0012297006  -44.169785      0             -44.169784     -1087197.4    
      4500   0.0097619589  -44.16979       0             -44.169782     -1087297.8    
      4510   0.0056355023  -44.16982       0             -44.169815     -1086899.2    
      4520   0.0031047003  -44.169823      0             -44.16982      -1086963.2    
      4530   0.0026434306  -44.169836      0             -44.169834     -1086964      
      4540   0.0017689669  -44.169842      0             -44.16984      -1087044.1    
      4550   0.011246642   -44.16985       0             -44.16984      -1087207.3    
      4560   0.00027005582 -44.169865      0             -44.169865     -1086578.1    
      4570   0.00027810938 -44.169868      0             -44.169868     -1087167.3    
      4580   0.0025267561  -44.169868      0             -44.169865     -1086896.5    
      4590   0.017933951   -44.169881      0             -44.169865     -1086651.1    
      4600   0.00070280577 -44.169895      0             -44.169895     -1086862.6    
      4610   0.006998644   -44.1699        0             -44.169893     -1086842      
      4620   0.023595289   -44.169916      0             -44.169895     -1086237.7    
      4630   0.0024239316  -44.169929      0             -44.169927     -1086841.2    
      4640   0.026653611   -44.169951      0             -44.169927     -1086857.6    
      4650   0.013286743   -44.169976      0             -44.169964     -1087258.8    
      4660   0.0019904836  -44.169982      0             -44.16998      -1086755.7    
      4670   0.0083735904  -44.169985      0             -44.169978     -1086501.5    
      4680   0.054573501   -44.170009      0             -44.16996      -1086685.2    
      4690   9.4463056e-05 -44.170012      0             -44.170012     -1086594.2    
      4700   0.0018753749  -44.170015      0             -44.170013     -1086759.9    
      4710   0.015591627   -44.170028      0             -44.170014     -1086767.5    
      4720   0.11036676    -44.170057      0             -44.169957     -1085864      
      4730   0.00038265264 -44.170067      0             -44.170067     -1086664.6    
      4740   0.0043479693  -44.170072      0             -44.170068     -1086536.1    
      4750   0.032794906   -44.170092      0             -44.170062     -1086966.9    
      4760   0.021431985   -44.170123      0             -44.170103     -1086691.1    
      4770   0.0016360147  -44.170119      0             -44.170118     -1086482.8    
      4780   0.010251196   -44.170135      0             -44.170126     -1086277.2    
      4790   0.018987718   -44.170151      0             -44.170134     -1086865.6    
      4800   0.00015345432 -44.170158      0             -44.170158     -1086244.2    
      4810   0.0022865872  -44.170157      0             -44.170155     -1086493.7    
      4820   0.017746539   -44.17017       0             -44.170153     -1086563.8    
      4830   8.8173834e-05 -44.170206      0             -44.170206     -1086128.7    
      4840   0.0065986439  -44.170211      0             -44.170205     -1086291      
      4850   0.0022302205  -44.170234      0             -44.170232     -1086042.8    
      4860   0.0026516923  -44.170235      0             -44.170233     -1086056.7    
      4870   0.020160545   -44.170251      0             -44.170233     -1085550.9    
      4880   0.00098208312 -44.170257      0             -44.170256     -1086222.2    
      4890   0.0094063914  -44.170265      0             -44.170257     -1086309      
      4900   0.0016011377  -44.170307      0             -44.170305     -1085657.2    
      4910   0.0030559189  -44.170312      0             -44.170309     -1085882.4    
      4920   0.0027745929  -44.170323      0             -44.170321     -1085700      
      4930   0.0013677919  -44.170329      0             -44.170328     -1086023.3    
      4940   0.015248123   -44.170342      0             -44.170328     -1086018.4    
      4950   0.036748586   -44.170384      0             -44.17035      -1086300.9    
      4960   0.00041350868 -44.170385      0             -44.170384     -1085778.4    
      4970   0.003863192   -44.170387      0             -44.170384     -1086042.3    
      4980   0.0311911     -44.170414      0             -44.170386     -1086032.1    
      4990   0.0022605114  -44.170416      0             -44.170414     -1085951.2    
      5000   0.010178243   -44.170427      0             -44.170418     -1086188.1    
      5010   0.00012356811 -44.170437      0             -44.170437     -1085964.2    
      5020   0.0034280167  -44.170442      0             -44.170438     -1085707.4    
      5030   0.029292336   -44.170465      0             -44.170439     -1085562.3    
      5040   0.0020936938  -44.170495      0             -44.170493     -1085914.1    
      5050   0.00015356623 -44.170504      0             -44.170503     -1085971      
      5060   0.006932071   -44.170509      0             -44.170502     -1085546.9    
      5070   0.009139558   -44.170524      0             -44.170516     -1085717.2    
      5080   0.0034703086  -44.170525      0             -44.170522     -1085496.6    
      5090   0.022288718   -44.17054       0             -44.17052      -1085625.4    
      5100   0.001039942   -44.170551      0             -44.17055      -1085814.9    
      5110   0.0067077598  -44.17055       0             -44.170544     -1085513.4    
      5120   0.06753707    -44.170551      0             -44.17049      -1087023.6    
      5130   0.0017070585  -44.170588      0             -44.170587     -1085542.6    
      5140   0.023245497   -44.170605      0             -44.170584     -1085549.7    
      5150   0.24109772    -44.170686      0             -44.170467     -1084889.5    
      5160   0.0038408457  -44.170693      0             -44.17069      -1085096      
      5170   0.00090546466 -44.1707        0             -44.170699     -1085481.8    
      5180   0.0054357317  -44.170703      0             -44.170698     -1085202.2    
      5190   0.044424861   -44.170732      0             -44.170691     -1085354.7    
      5200   0.0090252955  -44.170742      0             -44.170734     -1085078.9    
      5210   0.0015018261  -44.170741      0             -44.17074      -1085326.5    
      5220   0.0090866572  -44.170745      0             -44.170737     -1085304.5    
      5230   0.0054496263  -44.170771      0             -44.170766     -1086198.2    
      5240   0.012593502   -44.170789      0             -44.170777     -1085456.2    
      5250   0.0030146619  -44.170787      0             -44.170784     -1085140.6    
      5260   0.01257453    -44.170799      0             -44.170788     -1085431.8    
      5270   0.0036397091  -44.170829      0             -44.170826     -1084996.7    
      5280   0.001151501   -44.170848      0             -44.170847     -1084559.7    
      5290   0.0025160999  -44.170854      0             -44.170851     -1085025      
      5300   0.018435942   -44.170867      0             -44.17085      -1085184      
      5310   0.0010401932  -44.170888      0             -44.170887     -1084123      
      5320   0.00034556657 -44.170903      0             -44.170903     -1085074.3    
      5330   0.0042853047  -44.170901      0             -44.170897     -1084898.8    
      5340   0.034389456   -44.170928      0             -44.170897     -1084806.8    
      5350   0.0006149485  -44.17097       0             -44.17097      -1084945.3    
      5360   0.013023097   -44.170975      0             -44.170963     -1084991      
      5370   0.011098557   -44.171027      0             -44.171017     -1083647      
      5380   0.00032957991 -44.171047      0             -44.171047     -1084570.9    
      5390   0.0047412601  -44.171052      0             -44.171048     -1084871.3    
      5400   0.03828373    -44.171084      0             -44.17105      -1084966.2    
      5410   0.011570715   -44.171098      0             -44.171088     -1085065      
      5420   0.00079997754 -44.171103      0             -44.171102     -1084617.3    
      5430   0.0089071795  -44.171107      0             -44.171099     -1084631      
      5440   0.066389225   -44.171163      0             -44.171103     -1084352.5    
      5450   0.24515215    -44.171203      0             -44.170982     -1085949.1    
      5460   0.0026146708  -44.171231      0             -44.171229     -1084493.9    
      5470   0.025262951   -44.171252      0             -44.171229     -1084461.6    
      5480   0.16230781    -44.17131       0             -44.171163     -1083387.4    
      5490   0.00073353689 -44.171324      0             -44.171324     -1084414.7    
      5500   0.0079783873  -44.171327      0             -44.171319     -1084237      
      5510   0.058904776   -44.171371      0             -44.171317     -1084886.1    
      5520   0.053698804   -44.171423      0             -44.171375     -1084479.1    
      5530   0.0038805413  -44.171425      0             -44.171422     -1084183.2    
      5540   0.018728557   -44.171441      0             -44.171424     -1083803.8    
      5550   0.049442491   -44.171474      0             -44.171429     -1084853.9    
      5560   0.00042218279 -44.171487      0             -44.171487     -1083778.5    
      5570   0.0046422245  -44.171491      0             -44.171487     -1084239.6    
      5580   0.034066705   -44.171514      0             -44.171483     -1084362.2    
      5590   0.0085916084  -44.171544      0             -44.171536     -1084361.6    
      5600   0.00014504369 -44.171554      0             -44.171554     -1084106.8    
      5610   0.0048357651  -44.171558      0             -44.171554     -1083836.1    
      5620   0.041013365   -44.171594      0             -44.171557     -1083591.6    
      5630   0.0034328114  -44.171651      0             -44.171648     -1084365.5    
      5640   0.0021221785  -44.171659      0             -44.171657     -1083627.6    
      5650   0.012249636   -44.171666      0             -44.171655     -1083819.7    
      5660   0.0016304383  -44.171715      0             -44.171714     -1083162.7    
      5670   0.004697914   -44.171722      0             -44.171718     -1083636.5    
      5680   0.032659782   -44.171747      0             -44.171717     -1083816.1    
      5690   0.00090470828 -44.171754      0             -44.171753     -1083824.7    
      5700   0.010711204   -44.171765      0             -44.171755     -1083604.2    
      5710   0.00095128991 -44.171815      0             -44.171814     -1084002.7    
      5720   0.003577671   -44.17182       0             -44.171817     -1083636.6    
      5730   0.032606209   -44.171853      0             -44.171824     -1083526.9    
      5740   0.00063717094 -44.171887      0             -44.171886     -1083772      
      5750   0.012657094   -44.171898      0             -44.171887     -1083392.5    
      5760   0.004153063   -44.171945      0             -44.171941     -1084268.7    
      5770   0.011963942   -44.171961      0             -44.17195      -1083696.6    
      5780   0.0040915471  -44.17196       0             -44.171957     -1083370.3    
      5790   0.023504338   -44.171982      0             -44.171961     -1083650.5    
      5800   0.028472612   -44.172032      0             -44.172006     -1082842.2    
      5810   0.0074892193  -44.172041      0             -44.172035     -1083725.8    
      5820   0.0024722469  -44.172073      0             -44.172071     -1083610.2    
      5830   0.00054201468 -44.172086      0             -44.172086     -1083745.1    
      5840   0.00099627574 -44.172092      0             -44.172091     -1083093.6    
      5850   0.010162197   -44.172104      0             -44.172094     -1083336.5    
      5860   0.08314894    -44.172159      0             -44.172084     -1082700.4    
      5870   0.0068523749  -44.17222       0             -44.172214     -1082941.6    
      5880   0.02857994    -44.172239      0             -44.172213     -1082226.5    
      5890   0.00108255    -44.172263      0             -44.172262     -1082769.4    
      5900   0.012146162   -44.172273      0             -44.172262     -1083200.6    
      5910   0.12429398    -44.172326      0             -44.172213     -1081824.6    
      5920   0.018600815   -44.172349      0             -44.172332     -1082890.8    
      5930   0.0039444975  -44.172359      0             -44.172355     -1082892.9    
      5940   0.022834407   -44.17237       0             -44.172349     -1082670.1    
      5950   0.013214902   -44.172438      0             -44.172426     -1082733.2    
      5960   0.0067148256  -44.172444      0             -44.172438     -1082638.6    
      5970   0.055454689   -44.172481      0             -44.172431     -1082043.9    
      5980   0.0015546955  -44.172534      0             -44.172533     -1082690.4    
      5990   0.028886914   -44.17256       0             -44.172534     -1082585.1    
      6000   0.04957399    -44.172633      0             -44.172589     -1084870.7    
      6010   0.0014220609  -44.172717      0             -44.172715     -1082968.4    
      6020   0.010669866   -44.172729      0             -44.172719     -1082193.8    
      6030   0.079015047   -44.172772      0             -44.172701     -1081346.2    
      6040   0.060679682   -44.172822      0             -44.172768     -1081506.6    
      6050   0.0023895013  -44.172834      0             -44.172832     -1082531.5    
      6060   0.020116765   -44.17285       0             -44.172832     -1082452      
      6070   0.13354216    -44.172949      0             -44.172828     -1083380.8    
      6080   0.063620358   -44.173025      0             -44.172968     -1082016.5    
      6090   0.0055764695  -44.17303       0             -44.173025     -1082312      
      6100   0.047229229   -44.173071      0             -44.173028     -1082131.9    
      6110   0.41940199    -44.173189      0             -44.17281      -1083759.6    
      6120   0.0018160401  -44.173234      0             -44.173233     -1082366.3    
      6130   0.014734156   -44.173252      0             -44.173238     -1081799.2    
      6140   0.12829774    -44.173337      0             -44.173221     -1081807.6    
      6150   0.024017588   -44.173371      0             -44.173349     -1081666.9    
      6160   0.0042412968  -44.173372      0             -44.173368     -1082065.1    
      6170   0.027735422   -44.17339       0             -44.173365     -1082034.4    
      6180   0.01553748    -44.173467      0             -44.173453     -1083542.3    
      6190   0.036515584   -44.173518      0             -44.173485     -1082299.3    
      6200   0.0090128423  -44.173522      0             -44.173514     -1081769.4    
      6210   0.040202992   -44.173553      0             -44.173516     -1082257.1    
      6220   0.014715445   -44.173642      0             -44.173629     -1081476.3    
      6230   0.030516955   -44.173678      0             -44.17365      -1081843.3    
      6240   0.0067822489  -44.173684      0             -44.173678     -1081727      
      6250   0.05363876    -44.173733      0             -44.173684     -1081429.3    
      6260   0.00029784327 -44.173814      0             -44.173814     -1081981.7    
      6270   0.017683848   -44.173831      0             -44.173815     -1081235.9    
      6280   0.22764807    -44.173954      0             -44.173748     -1081744.7    
      6290   0.0071897563  -44.17399       0             -44.173984     -1081483.7    
      6300   0.078232668   -44.174054      0             -44.173983     -1081437.7    
      6310   0.0051010157  -44.174139      0             -44.174134     -1082160.4    
      6320   0.0025236105  -44.174157      0             -44.174155     -1081009.8    
      6330   0.019342247   -44.174172      0             -44.174155     -1081544.1    
      6340   0.15399187    -44.17429       0             -44.174151     -1081410.6    
      6350   0.013630128   -44.174325      0             -44.174312     -1081420.1    
      6360   0.050404521   -44.174353      0             -44.174307     -1082034.4    
      6370   0.017099774   -44.174409      0             -44.174394     -1081850.5    
      6380   0.021254867   -44.174457      0             -44.174438     -1081413.7    
      6390   0.0085073712  -44.174461      0             -44.174454     -1081030.3    
      6400   0.066941613   -44.174517      0             -44.174457     -1081270.1    
      6410   0.10478545    -44.174734      0             -44.17464      -1079928.5    
      6420   0.02305659    -44.174756      0             -44.174736     -1080169.3    
      6430   0.018243357   -44.174847      0             -44.17483      -1080516      
      6440   0.012520418   -44.174863      0             -44.174852     -1080721.8    
      6450   0.081931735   -44.174927      0             -44.174853     -1081146.1    
      6460   0.0021355221  -44.175041      0             -44.175039     -1079461.3    
      6470   0.0021962032  -44.17507       0             -44.175068     -1081108.7    
      6480   0.019238734   -44.175084      0             -44.175067     -1080348.7    
      6490   0.13659591    -44.17519       0             -44.175066     -1079675.1    
      6500   0.0055300335  -44.175276      0             -44.175271     -1080302.5    
      6510   0.055564633   -44.175318      0             -44.175267     -1080248.3    
      6520   0.19035162    -44.175472      0             -44.175299     -1078593.8    
      6530   0.02029524    -44.175545      0             -44.175526     -1080280      
      6540   0.22506109    -44.175724      0             -44.17552      -1080354.5    
      6550   0.12585623    -44.175957      0             -44.175843     -1081634.6    
      6560   0.018913775   -44.175999      0             -44.175982     -1080110.5    
      6570   0.076493588   -44.176056      0             -44.175987     -1079331.2    
      6580   0.53893322    -44.176284      0             -44.175797     -1079953.2    
      6590   0.00094383199 -44.176299      0             -44.176298     -1079655.6    
      6600   0.018222909   -44.176316      0             -44.176299     -1080190      
      6610   0.15119009    -44.176434      0             -44.176297     -1080236.5    
      6620   1.171053      -44.176746      0             -44.175686     -1077382.8    
      6630   0.004138829   -44.176835      0             -44.176832     -1079998.6    
      6640   0.046009783   -44.176873      0             -44.176831     -1079579.2    
      6650   0.35208445    -44.177127      0             -44.176808     -1081064.5    
      6660   0.25547768    -44.177423      0             -44.177192     -1080215.2    
      6670   0.019439479   -44.177443      0             -44.177425     -1079517.9    
      6680   0.11891933    -44.177538      0             -44.177431     -1078814.4    
      6690   0.23340283    -44.177778      0             -44.177567     -1080921.6    
      6700   0.0019202368  -44.177825      0             -44.177823     -1078753      
      6710   0.028130071   -44.177852      0             -44.177827     -1079635.4    
      6720   0.21924408    -44.178016      0             -44.177817     -1079914.2    
      6730   0.0011301118  -44.178443      0             -44.178442     -1078465.8    
      6740   0.087636225   -44.178513      0             -44.178434     -1079029.2    
      6750   0.038437324   -44.178859      0             -44.178824     -1078094.5    
      6760   0.039656022   -44.1789        0             -44.178864     -1078149      
      6770   0.3006548     -44.179054      0             -44.178782     -1076179.1    
      6780   0.015407655   -44.179169      0             -44.179155     -1078916.1    
      6790   0.13723519    -44.17928       0             -44.179156     -1079305.2    
      6800   0.41094121    -44.179697      0             -44.179325     -1078572.5    
      6810   0.0013690264  -44.179723      0             -44.179721     -1078899.2    
      6820   0.031982987   -44.17975       0             -44.179721     -1078379.5    
      6830   0.28337241    -44.179972      0             -44.179715     -1078148.5    
      6840   0.00097749083 -44.180548      0             -44.180547     -1078759      
      6850   0.104171      -44.180633      0             -44.180539     -1078205.3    
      6860   0.101081      -44.180989      0             -44.180898     -1082072      
      6870   0.046118889   -44.18127       0             -44.181228     -1078507.9    
      6880   0.45885579    -44.181639      0             -44.181224     -1079586.3    
      6890   0.12106308    -44.181916      0             -44.181807     -1079105.6    
      6900   0.012703241   -44.181962      0             -44.181951     -1077747      
      6910   0.13443471    -44.182067      0             -44.181946     -1077782.8    
      6920   1.0163787     -44.182865      0             -44.181945     -1076792.5    
      6930   0.044115684   -44.183113      0             -44.183073     -1077838      
      6940   0.4738942     -44.183466      0             -44.183038     -1078402.2    
      6950   0.018598498   -44.184009      0             -44.183992     -1078022      
      6960   0.23485245    -44.184191      0             -44.183978     -1078230.7    
      6970   0.53848009    -44.184922      0             -44.184435     -1077043.9    
      6980   0.0026956555  -44.184967      0             -44.184964     -1077633.9    
      6990   0.060859837   -44.185018      0             -44.184963     -1076876.4    
      7000   0.53599159    -44.185429      0             -44.184944     -1076500.3    
      7010   0.0030040279  -44.186527      0             -44.186524     -1077865.1    
      7020   0.21533256    -44.186704      0             -44.18651      -1076658.5    
      7030   0.48484226    -44.18669       0             -44.186252     -1085203.9    
      7040   0.10462379    -44.187877      0             -44.187782     -1077862      
      7050   0.032276595   -44.188361      0             -44.188332     -1079489      
      7060   0.037478904   -44.188555      0             -44.188521     -1076464.6    
      7070   0.45139453    -44.188915      0             -44.188506     -1076023.3    
      7080   0.49964053    -44.190611      0             -44.190159     -1078262.8    
      7090   0.17254521    -44.190815      0             -44.190659     -1077637.2    
      7100   0.15900501    -44.191493      0             -44.191349     -1076995.4    
      7110   0.10455789    -44.191594      0             -44.1915       -1076358.1    
      7120   0.65070429    -44.192106      0             -44.191517     -1074850.6    
      7130   0.015764215   -44.193045      0             -44.193031     -1079164.4    
      7140   0.016743999   -44.193265      0             -44.19325      -1074755      
      7150   0.15909095    -44.193394      0             -44.19325      -1076719.4    
      7160   1.1650903     -44.19431       0             -44.193256     -1078156.9    
      7170   0.048764273   -44.195009      0             -44.194965     -1076474.7    
      7180   0.48505926    -44.19538       0             -44.194941     -1076511.5    
      7190   1.6755096     -44.196753      0             -44.195237     -1080872.8    
      7200   0.18564381    -44.197377      0             -44.197209     -1075888.6    
      7210   2.0917558     -44.199054      0             -44.197162     -1075221.7    
      7220   1.0541495     -44.201347      0             -44.200394     -1071051.9    
      7230   0.16691135    -44.201731      0             -44.20158      -1075368.2    
      7240   0.78183061    -44.202327      0             -44.201619     -1077361.8    
      7250   4.4011411     -44.204691      0             -44.200708     -1075192.5    
      7260   0.008872617   -44.204848      0             -44.20484      -1076000.1    
      7270   0.19022687    -44.205004      0             -44.204832     -1074527.9    
      7280   1.6452766     -44.206268      0             -44.20478      -1074138.3    
      7290   10.178159     -44.210044      0             -44.200834     -1081538.1    
      7300   0.04315159    -44.210855      0             -44.210816     -1074161.2    
      7310   0.54503995    -44.211293      0             -44.2108       -1075236.1    
      7320   4.3114352     -44.214569      0             -44.210668     -1070455      
      7330   2.1457385     -44.218252      0             -44.216311     -1072617.6    
      7340   0.21339904    -44.218503      0             -44.21831      -1074617.5    
      7350   1.6444118     -44.219819      0             -44.218331     -1076210      
      7360   2.2003772     -44.223356      0             -44.221365     -1069988      
      7370   0.02079831    -44.22386       0             -44.223841     -1076214.4    
      7380   0.38563018    -44.224173      0             -44.223824     -1073722.8    
      7390   3.2338693     -44.226665      0             -44.223739     -1072585.1    
      7400   0.037377635   -44.233235      0             -44.233201     -1078628.4    
      7410   1.7053801     -44.234551      0             -44.233008     -1074031.9    
      7420   0.76727389    -44.237176      0             -44.236482     -1077059.9    
      7430   1.1443577     -44.238938      0             -44.237903     -1073127      
      7440   0.40508926    -44.239312      0             -44.238945     -1075331.8    
      7450   2.1271237     -44.240917      0             -44.238992     -1077719.5    
      7460   3.018988      -44.247062      0             -44.24433      -1076093.5    
      7470   0.84653799    -44.247543      0             -44.246778     -1079247.2    
      7480   0.119712      -44.251433      0             -44.251325     -1080776.3    
      7490   0.35894893    -44.252404      0             -44.252079     -1073938.2    
      7500   2.5607145     -44.254351      0             -44.252034     -1072666.2    
      7510   1.2131126     -44.261884      0             -44.260787     -1074644.8    
      7520   0.87450501    -44.262677      0             -44.261886     -1073233.1    
      7530   7.7322261     -44.268611      0             -44.261615     -1067501.3    
      7540   0.67928775    -44.274014      0             -44.273399     -1072947.5    
      7550   3.9050202     -44.276739      0             -44.273206     -1070700.5    
      7560   0.039937883   -44.281548      0             -44.281512     -1069847.7    
      7570   1.3885826     -44.282866      0             -44.281609     -1080990.4    
      7580   0.27955885    -44.288934      0             -44.288681     -1085421.6    
      7590   0.68476741    -44.290988      0             -44.290368     -1074617.2    
      7600   4.2508891     -44.294144      0             -44.290297     -1073289.9    
      7610   13.650771     -44.305439      0             -44.293088     -1061403.9    
      7620   0.026675318   -44.310754      0             -44.31073      -1074846      
      7630   1.0343483     -44.311594      0             -44.310659     -1078260.3    
      7640   8.8705204     -44.318545      0             -44.310519     -1077292.3    
      7650   3.5012735     -44.343926      0             -44.340758     -1077379.6    
      7660   2.8088968     -44.3459        0             -44.343359     -1087051.8    
      7670   5.8986655     -44.356628      0             -44.351291     -1094799.4    
      7680   1.5551854     -44.361902      0             -44.360495     -1080962.5    
      7690   13.762461     -44.372917      0             -44.360464     -1079640.1    
      7700   0.68560272    -44.390129      0             -44.389509     -1102668.4    
      7710   0.28076702    -44.398163      0             -44.397909     -1079835.8    
      7720   3.6342257     -44.401093      0             -44.397805     -1084141.8    
      7730   30.672342     -44.425508      0             -44.397755     -1086210.1    
      7740   0.74201605    -44.462157      0             -44.461485     -1083623.3    
      7750   14.650728     -44.474016      0             -44.46076      -1081559.9    
      7760   62.437536     -44.525135      0             -44.46864      -1094022.1    
      7770   7.8604902     -44.531697      0             -44.524584     -1087440.2    
      7780   86.031204     -44.585457      0             -44.507614     -1113585.3    
      7790   16.324438     -44.602637      0             -44.587867     -1097853.6    
      7800   4.6097713     -44.605599      0             -44.601428     -1095661.4    
      7810   22.846184     -44.622887      0             -44.602216     -1104294.7    
      7820   47.595608     -44.690168      0             -44.647103     -1104435.5    
      7830   0.16703095    -44.695214      0             -44.695063     -1107521.8    
      7840   5.7616651     -44.699936      0             -44.694723     -1098885.1    
      7850   47.699433     -44.737319      0             -44.694159     -1102865.6    
      7860   52.132181     -44.871358      0             -44.824188     -1122912.7    
      7870   20.23128      -44.888284      0             -44.869978     -1109315.6    
      7880   1.9873965     -45.006845      0             -45.005047     -1136834.2    
      7890   10.627854     -45.022715      0             -45.013098     -1129083.5    
      7900   20.384093     -28.641349      0             -28.622905     -409835.27    
      7910   814.30959     -29.364176      0             -28.627372     -715122.31    
      7920   2465.6819     -35.306775      0             -33.075775     -402318.98    
      7930   928.92662     -37.532229      0             -36.691717     -416036.5     
      7940   121.43882     -40.274578      0             -40.164697     -187828.06    
      7950   184.44673     -41.576136      0             -41.409244     -478367.28    
      7960   735.65524     -42.125072      0             -41.459436     -411061.53    
      7970   842.59437     -42.929014      0             -42.166617     -292434.86    
      7980   1914.781      -45.663825      0             -43.931291     -450503.36    
      7990   280.00844     -45.748367      0             -45.49501      -377410.96    
      8000   1088.7941     -46.571376      0             -45.586213     -412667.41    
      8010   4578.1053     -52.058152      0             -47.915786     -368054.28    
      8020   48.593759     -53.086531      0             -53.042562     -478325.16    
      8030   667.45151     -53.659119      0             -53.055195     -396425.21    
      8040   5845.8027     -58.253742      0             -52.964336     -274758.58    
      8050   119.40888     -61.061212      0             -60.953169     -148202.39    
      8060   34.774203     -61.263513      0             -61.232049     -190053.92    
      8070   172.10501     -61.369291      0             -61.213567     -161557.7     
      8080   1392.114      -64.412732      0             -63.153118     -234048.68    
      8090   296.51089     -64.821596      0             -64.553307     -248018.04    
      8100   32.900366     -64.860917      0             -64.831148     -258484.36    
      8110   316.12071     -65.107995      0             -64.821962     -272037.34    
      8120   2515.7826     -66.704772      0             -64.428439     -129809.9     
      8130   118.43394     -67.010771      0             -66.90361      -276066.22    
      8140   21.441649     -65.359159      0             -65.339758     -200580.55    
      8150   83.906761     -65.521329      0             -65.445409     -256418.62    
      8160   418.29775     -65.484714      0             -65.106229     -286467.58    
      8170   1856.5621     -82.153148      0             -80.473292     -804946.24    
      8180   905.42297     -83.109853      0             -82.290608     -663411.02    
      8190   125.96286     -84.908261      0             -84.794287     -284004.62    
      8200   1360.0621     -85.918802      0             -84.688189     -624631.04    
      8210   67.020755     -87.571397      0             -87.510755     -649644.9     
      8220   844.92602     -92.215996      0             -91.451489     -668877.95    
      8230   180.90621     -92.949522      0             -92.785834     -1011808.7    
      8240   414.9978      -94.054989      0             -93.67949      -800776.35    
      8250   2964.2196     -96.011828      0             -93.32974      -821733.44    
      8260   96.311743     -96.680704      0             -96.593559     -814432.06    
      8270   728.22737     -97.221172      0             -96.562257     -830665.56    
      8280   78.91265      -100.08984      0             -100.01844     -985714.21    
      8290   129.5536      -101.44883      0             -101.3316      -880813.37    
      8300   165.22353     -102.4687       0             -102.3192      -986824.75    
      8310   1733.3902     -103.70827      0             -102.13987     -1002924.2    
      8320   8585.321      -108.13591      0             -100.36773     -1213256.9    
      8330   3876.7481     -112.67005      0             -109.16229     -1501243      
      8340   554.19581     -114.15419      0             -113.65274     -1516428.9    
      8350   3203.4442     -116.62753      0             -113.72899     -1359729.8    
      8360   2.9056984     -118.7996       0             -118.79697     -1461458.1    
      8370   287.74811     -119.03611      0             -118.77575     -1440515.7    
      8380   1589.9798     -120.29617      0             -118.85753     -1307534.2    
      8390   38.692739     -122.83662      0             -122.80161     -1463657      
      8400   200.44712     -122.99543      0             -122.81406     -1439916.5    
      8410   145.14403     -123.3325       0             -123.20117     -1450478.7    
      8420   43.53798      -123.3602       0             -123.3208      -1447836.5    
      8430   221.13984     -123.50505      0             -123.30496     -1497132.4    
      8440   5.4900947     -123.98509      0             -123.98012     -1489994.2    
      8450   83.775634     -124.05169      0             -123.97589     -1495505.9    
      8460   103.18503     -124.40216      0             -124.3088      -1546675.8    
      8470   0.61742181    -124.41745      0             -124.4169      -1541062.3    
      8480   18.363641     -124.43265      0             -124.41604     -1539214.2    
      8490   144.20939     -124.54361      0             -124.41313     -1550591.3    
      8500   3.6167468     -125.43072      0             -125.42745     -1594694.7    
      8510   42.583958     -125.46624      0             -125.42771     -1596335.5    
      8520   20.080263     -125.61324      0             -125.59507     -1617953.9    
      8530   200.93667     -125.72754      0             -125.54573     -1637747.8    
      8540   14.424356     -125.76896      0             -125.75591     -1645988.5    
      8550   76.521504     -125.82357      0             -125.75433     -1654626.6    
      8560   0.4244593     -125.92227      0             -125.92189     -1672382.9    
      8570   26.14947      -125.94523      0             -125.92157     -1672523.2    
      8580   196.81033     -126.07345      0             -125.89537     -1653530.6    
      8590   3.255305      -126.11768      0             -126.11474     -1677575.6    
      8600   23.412171     -126.13616      0             -126.11498     -1687681.5    
      8610   27.995838     -126.171        0             -126.14567     -1682883.6    
      8620   0.10926091    -126.17283      0             -126.17273     -1686161.5    
      8630   2.4841733     -126.17489      0             -126.17264     -1685282.3    
      8640   14.764479     -126.18615      0             -126.17279     -1686134.7    
      8650   0.11557087    -126.19831      0             -126.19821     -1686807      
      8660   2.9906809     -126.20083      0             -126.19813     -1687262.8    
      8670   19.996769     -126.20918      0             -126.19108     -1684967.2    
      8680   0.63139592    -126.21819      0             -126.21762     -1687402.8    
      8690   8.8020543     -125.59747      0             -125.58951     -1658901.9    
      8700   0.83886456    -125.62437      0             -125.62361     -1671493.6    
      8710   0.76592335    -125.63051      0             -125.62982     -1668714.2    
      8720   5.3009955     -125.63456      0             -125.62976     -1669903.2    
      8730   0.71429496    -125.64936      0             -125.64872     -1669906.3    
      8740   1.3095372     -125.6525       0             -125.65131     -1670040.9    
      8750   0.5272833     -125.65451      0             -125.65404     -1671091.1    
      8760   3.8934494     -125.58265      0             -125.57913     -1662369.1    
      8770   1.7022447     -125.59256      0             -125.59102     -1662450.3    
      8780   0.92540656    -125.59337      0             -125.59253     -1662773.2    
      8790   6.9562481     -125.59837      0             -125.59208     -1664508.9    
      8800   0.2574816     -125.60322      0             -125.60298     -1663949      
      8810   2.4661339     -125.60511      0             -125.60288     -1664071.3    
      8820   0.014066127   -125.60796      0             -125.60794     -1657965.8    
      8830   0.048615019   -126.18911      0             -126.18906     -1689065.9    
      8840   0.0015971932  -126.18915      0             -126.18915     -1688693.1    
      8850   9.9422086e-05 -126.18915      0             -126.18915     -1688662.1    
      8860   6.3847604e-05 -125.60833      0             -125.60833     -1660109.7    
      8870   1.9636834e-07 -125.60833      0             -125.60833     -1660109.4    
      8880   1.2272995e-08 -125.60833      0             -125.60833     -1660109.4    
      8890   1.444766e-09  -126.18915      0             -126.18915     -1688659.1    
      8900   2.9963361e-12 -125.60833      0             -125.60833     -1660109.4    
      8910   1.685439e-12  -125.60833      0             -125.60833     -1660109.4    
      8920   4.4452303e-12 -126.18915      0             -126.18915     -1688659.1    
Loop time of 56.192 on 1 procs for 8920 steps with 8 atoms

99.7% CPU use with 1 MPI tasks x 1 OpenMP threads

Minimization stats:
  Stopping criterion = energy tolerance
  Energy initial, next-to-last, final = 
     -5.76299047470093  -126.189152300471  -126.189152300471
  Force two-norm initial, final = 1.9985767 0.93549751
  Force max component initial, final = 1.0597434 0.67878944
  Final line search alpha, max atom move = 0 0
  Iterations, force evaluations = 8920 9654

MPI task timing breakdown:
Section |  min time  |  avg time  |  max time  |%varavg| %total
---------------------------------------------------------------
Pair    | 56.047     | 56.047     | 56.047     |   0.0 | 99.74
Neigh   | 0.00065531 | 0.00065531 | 0.00065531 |   0.0 |  0.00
Comm    | 0.097345   | 0.097345   | 0.097345   |   0.0 |  0.17
Output  | 0.0089921  | 0.0089921  | 0.0089921  |   0.0 |  0.02
Modify  | 0          | 0          | 0          |   0.0 |  0.00
Other   |            | 0.03822    |            |       |  0.07

Nlocal:              8 ave           8 max           8 min
Histogram: 1 0 0 0 0 0 0 0 0 0
Nghost:           2528 ave        2528 max        2528 min
Histogram: 1 0 0 0 0 0 0 0 0 0
Neighs:             69 ave          69 max          69 min
Histogram: 1 0 0 0 0 0 0 0 0 0
FullNghs:         6674 ave        6674 max        6674 min
Histogram: 1 0 0 0 0 0 0 0 0 0

Total # of neighbors = 6674
Ave neighs/atom = 834.25
Neighbor list builds = 5
Dangerous builds = 0
write_data ./StructureDump/sample.8.dat 
System init for write_data ...
variable etot equal etotal
variable ptot equal press
variable pairp equal epair
variable numat equal atoms
run 0
WARNING: No fixes with time integration, atoms won't move (src/verlet.cpp:60)
Per MPI rank memory allocation (min/avg/max) = 3.994 | 3.994 | 3.994 Mbytes
   Step          Temp          E_pair         E_mol          TotEng         Press     
      8920   4.4452303e-12 -126.18915      0             -126.18915     -1556928.9    
Loop time of 2.5121e-05 on 1 procs for 0 steps with 8 atoms

95.5% CPU use with 1 MPI tasks x 1 OpenMP threads

MPI task timing breakdown:
Section |  min time  |  avg time  |  max time  |%varavg| %total
---------------------------------------------------------------
Pair    | 0          | 0          | 0          |   0.0 |  0.00
Neigh   | 0          | 0          | 0          |   0.0 |  0.00
Comm    | 0          | 0          | 0          |   0.0 |  0.00
Output  | 0          | 0          | 0          |   0.0 |  0.00
Modify  | 0          | 0          | 0          |   0.0 |  0.00
Other   |            | 2.512e-05  |            |       |100.00

Nlocal:              8 ave           8 max           8 min
Histogram: 1 0 0 0 0 0 0 0 0 0
Nghost:           2528 ave        2528 max        2528 min
Histogram: 1 0 0 0 0 0 0 0 0 0
Neighs:             68 ave          68 max          68 min
Histogram: 1 0 0 0 0 0 0 0 0 0
FullNghs:         6658 ave        6658 max        6658 min
Histogram: 1 0 0 0 0 0 0 0 0 0

Total # of neighbors = 6658
Ave neighs/atom = 832.25
Neighbor list builds = 0
Dangerous builds = 0
print "${etot} ${pairp} ${ptot} ${numat} " append Summary.dat screen no
Total wall time: 0:00:56
