mass 1 51.996100
pair_style hybrid/overlay soft 1.5 mliap model mliappy LATER descriptor ace coupling_coefficients.yace
Loading python model deferred.
pair_coeff * * soft 100.0
pair_coeff * * mliap   Cr

thermo 10
velocity all create 0.0001 4928459 dist gaussian
Loading python model complete.
min_style  fire
min_modify integrator eulerexplicit tmax 10.0 tmin 0.0 delaystep 5 dtgrow 1.1 dtshrink 0.5 alpha0 0.1 alphashrink 0.99 vdfmax 100000 halfstepback no initialdelay no
minimize 1e-12 1e-12 10000 100000
Neighbor list info ...
  update: every = 1 steps, delay = 0 steps, check = yes
  max neighbors/atom: 2000, page size: 100000
  master list distance cutoff = 13.209389
  ghost atom cutoff = 13.209389
  binsize = 6.6046944, bins = 1 1 1
  2 neighbor lists, perpetual/occasional/extra = 2 0 0
  (1) pair soft, perpetual, half/full trim from (2)
      attributes: half, newton on, cut 3.5
      pair build: halffull/trim/newton
      stencil: none
      bin: none
  (2) pair mliap, perpetual
      attributes: full, newton on
      pair build: full/bin/atomonly
      stencil: full/bin/3d
      bin: standard
  Parameters for fire:
    dmax  delaystep dtgrow dtshrink alpha0 alphashrink tmax tmin   integrator   halfstepback   abcfire  
     0.1      5      1.1     0.5     0.1      0.99      10   0   eulerexplicit       no          no     
Per MPI rank memory allocation (min/avg/max) = 3.99 | 3.99 | 3.99 Mbytes
   Step          Temp          E_pair         E_mol          TotEng         Press     
         0   0             -7.0807835      0             -7.0807835      252349.3     
        10   767.50524     -7.6921811      0             -6.9977262     -15072.635    
        20   2428.9247     -9.5103371      0             -7.312595      -62012.962    
        30   21.612411     -14.028349      0             -14.008793     -209605.98    
        40   2205.2931     -15.780304      0             -13.784908     -207551.73    
        50   1136.4374     -17.285002      0             -16.256729     -298210.64    
        60   839.86658     -21.356185      0             -20.596256      44959.634    
        70   683.94477     -22.482099      0             -21.863251     -291664.63    
        80   1922.4627     -23.60996       0             -21.870475     -241090.6     
        90   35.734716     -25.494612      0             -25.462278     -359933.51    
       100   973.8255      -26.324971      0             -25.443833     -340770.26    
       110   7406.8008     -31.097882      0             -24.396053     -554612.66    
       120   2989.5105     -33.500653      0             -30.795681     -652384.84    
       130   665.52169     -34.53698       0             -33.934802     -652327.47    
       140   20.210782     -35.856917      0             -35.83863      -382936.72    
       150   681.19103     -36.474277      0             -35.857921     -626457.09    
       160   640.06033     -38.444378      0             -37.865238     -621811.66    
       170   251.12387     -38.765171      0             -38.537949     -678222.45    
       180   1071.3138     -40.574198      0             -39.604851     -746018.64    
       190   29.479496     -41.218578      0             -41.191904     -800113.64    
       200   340.94178     -41.509286      0             -41.200795     -864594.81    
       210   3059.7521     -44.93194       0             -42.163412     -1103532.9    
       220   4570.4915     -74.295272      0             -70.159795     -2084635.6    
       230   1208.7655     -84.720652      0             -83.626935     -2789587.2    
       240   5789.3532     -88.582495      0             -83.344167     -2857820.4    
       250   46.331823     -94.898648      0             -94.856726     -3245720.5    
       260   1373.6215     -96.219889      0             -94.977008     -3201103.9    
       270   431.05498     -102.17365      0             -101.78362     -3230752.9    
       280   1218.4037     -105.71206      0             -104.60963     -3312045.6    
       290   7460.675      -111.30952      0             -104.55894     -3356295      
       300   8479.6775     -131.45618      0             -123.78359     -3700040      
       310   13.507605     -129.8564       0             -129.84418     -3757932.4    
       320   221.07642     -130.03917      0             -129.83913     -3672384.9    
       330   844.61171     -132.63264      0             -131.86842     -3648609.1    
       340   75.131434     -133.1215       0             -133.05352     -3724804.5    
       350   26.798682     -133.56314      0             -133.53889     -3751468      
       360   207.33588     -133.52842      0             -133.34082     -3764030.9    
       370   48.103784     -134.03703      0             -133.9935      -3787934      
       380   27.160019     -137.04703      0             -137.02246     -3928986.7    
       390   91.762743     -131.80456      0             -131.72153     -3796094.6    
       400   124.26464     -133.04711      0             -132.93468     -3786600.3    
       410   64.660017     -133.11952      0             -133.06101     -3815196.8    
       420   6.2203344     -138.45173      0             -138.4461      -4127411.1    
       430   70.100049     -138.50706      0             -138.44364     -4150184.8    
       440   1.5618564     -138.54588      0             -138.54447     -4156352.5    
       450   16.635365     -138.56105      0             -138.54599     -4144544.5    
       460   25.488735     -138.64335      0             -138.62028     -4109909.6    
       470   24.857406     -138.69029      0             -138.6678      -4132706.5    
       480   63.290787     -138.6726       0             -138.61533     -4155719.4    
       490   143.37603     -138.68254      0             -138.55281     -4176115.5    
       500   42.60939      -139.05124      0             -139.01269     -4192021.6    
       510   27.285575     -133.64345      0             -133.61876     -3999276.9    
       520   20.841754     -133.68883      0             -133.66997     -3986159.6    
       530   74.179012     -132.43978      0             -132.37266     -3960472.8    
       540   2052.0412     -134.44304      0             -132.58631     -4029392      
       550   9.1436438     -134.59265      0             -134.58437     -4065353.8    
       560   221.00936     -134.57723      0             -134.37726     -4079599.4    
       570   1596.8334     -135.73097      0             -134.28613     -4131502.6    
       580   30.749907     -137.15038      0             -137.12256     -4162066.1    
       590   480.29244     -137.54812      0             -137.11354     -4182235.7    
       600   438.02533     -138.30774      0             -137.91141     -4225141.4    
       610   172.3701      -138.41615      0             -138.26018     -4226916.8    
       620   1283.9591     -139.2858       0             -138.12404     -4308898.1    
       630   74.797157     -140.68896      0             -140.62128     -4614997.2    
       640   35.14936      -140.94418      0             -140.91238     -4646639.5    
       650   307.34814     -141.1934       0             -140.91531     -4677389.7    
       660   61.020999     -141.64233      0             -141.58711     -4751899.3    
       670   20.101399     -141.75264      0             -141.73445     -4740376.4    
       680   61.1838       -141.79678      0             -141.74142     -4760652.8    
       690   91.971391     -142.07943      0             -141.99621     -4747054.7    
       700   20.031443     -142.08595      0             -142.06782     -4755891.5    
       710   6.4065477     -142.09094      0             -142.08515     -4753223.8    
       720   28.958246     -142.11294      0             -142.08674     -4760057.5    
       730   27.642335     -142.18762      0             -142.16261     -4733623.2    
       740   0.059546082   -142.19081      0             -142.19075     -4738061.8    
       750   2.0578473     -142.19246      0             -142.1906      -4734345.6    
       760   10.106124     -142.20003      0             -142.19088     -4722608.3    
       770   0.043422722   -142.20285      0             -142.20281     -4705974.2    
       780   0.66605685    -142.20342      0             -142.20282     -4705398.3    
       790   0.58250379    -142.20439      0             -142.20386     -4694871.5    
       800   0.21360957    -142.20454      0             -142.20435     -4692968.2    
       810   0.051453739   -142.20459      0             -142.20455     -4692418.2    
       820   0.27107886    -142.20478      0             -142.20453     -4689597.2    
       830   0.19796132    -142.20523      0             -142.20506     -4679498.7    
       840   0.00015138062 -142.20534      0             -142.20534     -4678095.2    
       850   0.016023283   -142.20535      0             -142.20533     -4677587.3    
       860   0.091515944   -142.20542      0             -142.20533     -4675784.6    
       870   0.11096545    -142.20553      0             -142.20543     -4670180.3    
       880   0.00046258042 -142.20557      0             -142.20557     -4670684.8    
       890   0.005714249   -142.20555      0             -142.20554     -4670231.3    
       900   0.034514827   -142.20558      0             -142.20555     -4668559.4    
       910   0.0028366077  -142.2056       0             -142.2056      -4666402.3    
       920   0.00067508807 -142.20559      0             -142.20559     -4666772.1    
       930   0.0021172783  -142.20561      0             -142.20561     -4666407.5    
       940   0.00031372005 -142.20561      0             -142.20561     -4665719.4    
       950   0.00033763592 -142.20562      0             -142.20562     -4665737.3    
       960   0.0021897225  -142.20562      0             -142.20562     -4665482      
       970   0.00035478749 -142.20563      0             -142.20563     -4664527.4    
       980   0.00025429398 -142.20563      0             -142.20563     -4664438.8    
       990   0.0018379623  -142.20562      0             -142.20562     -4664097.6    
      1000   4.1826208e-05 -142.20561      0             -142.20561     -4664019.4    
      1010   0.00036538351 -142.20563      0             -142.20563     -4663929.6    
      1020   3.82922e-05   -142.20563      0             -142.20563     -4663500.8    
      1030   3.8800756e-05 -142.20563      0             -142.20563     -4663486      
      1040   0.00031378911 -142.20562      0             -142.20562     -4663317.2    
      1050   4.8795292e-06 -142.20563      0             -142.20563     -4663183.3    
      1060   4.6466237e-05 -142.20563      0             -142.20563     -4663153.7    
      1070   2.8346016e-05 -142.20562      0             -142.20562     -4663072.5    
      1080   9.496153e-06  -142.20563      0             -142.20563     -4663078.1    
      1090   6.4460945e-05 -142.20563      0             -142.20563     -4663016.9    
      1100   1.6425609e-06 -142.20562      0             -142.20562     -4663000.1    
      1110   1.1711788e-05 -142.20563      0             -142.20563     -4662985.4    
      1120   7.4909709e-06 -142.20563      0             -142.20563     -4662879.5    
      1130   5.2777565e-09 -142.20562      0             -142.20562     -4662892.5    
      1140   6.5458906e-07 -142.20562      0             -142.20562     -4662892.2    
      1150   4.7921014e-06 -142.20563      0             -142.20563     -4662876.1    
      1160   6.0802814e-06 -142.20562      0             -142.20562     -4662822      
      1170   1.2691896e-08 -142.20562      0             -142.20562     -4662808.1    
      1180   9.4377335e-08 -142.20562      0             -142.20562     -4662805.8    
      1190   1.0676943e-08 -142.20563      0             -142.20563     -4662799.2    
      1200   1.9155305e-08 -142.20563      0             -142.20563     -4662799.8    
      1210   1.2625791e-07 -142.20563      0             -142.20563     -4662797.9    
      1220   1.786474e-07  -142.20562      0             -142.20562     -4662790.9    
      1230   1.3764979e-10 -142.20562      0             -142.20562     -4662789.6    
      1240   6.6229995e-09 -142.20562      0             -142.20562     -4662789.3    
      1250   5.674203e-08  -142.20563      0             -142.20563     -4662787.6    
      1260   1.910706e-08  -142.20561      0             -142.20561     -4662782.1    
      1270   2.2791977e-09 -142.20561      0             -142.20561     -4662781.8    
      1280   1.8852674e-08 -142.20562      0             -142.20562     -4662780.5    
      1290   2.378682e-10  -142.20562      0             -142.20562     -4662780.1    
      1300   2.6699408e-09 -142.20562      0             -142.20562     -4662779.7    
      1310   1.2478212e-11 -142.20562      0             -142.20562     -4662778.7    
      1320   1.6650587e-10 -142.20562      0             -142.20562     -4662778.7    
      1330   4.6021597e-13 -142.20563      0             -142.20563     -4662778.6    
      1340   2.6530924e-11 -142.20563      0             -142.20563     -4662778.6    
      1350   1.5402159e-10 -142.20563      0             -142.20563     -4662778.5    
      1360   2.4049716e-11 -142.20563      0             -142.20563     -4662778.4    
      1370   3.8401634e-12 -142.20563      0             -142.20563     -4662778.3    
Loop time of 8.61836 on 1 procs for 1370 steps with 8 atoms

100.2% CPU use with 1 MPI tasks x 1 OpenMP threads

Minimization stats:
  Stopping criterion = energy tolerance
  Energy initial, next-to-last, final = 
     -7.08078353731605  -142.205629393708  -142.205629393824
  Force two-norm initial, final = 33.309345 2.6167474e-06
  Force max component initial, final = 17.498752 1.2412886e-06
  Final line search alpha, max atom move = 0 0
  Iterations, force evaluations = 1370 1480

MPI task timing breakdown:
Section |  min time  |  avg time  |  max time  |%varavg| %total
---------------------------------------------------------------
Pair    | 8.5956     | 8.5956     | 8.5956     |   0.0 | 99.74
Neigh   | 0.00039285 | 0.00039285 | 0.00039285 |   0.0 |  0.00
Comm    | 0.014959   | 0.014959   | 0.014959   |   0.0 |  0.17
Output  | 0.0014248  | 0.0014248  | 0.0014248  |   0.0 |  0.02
Modify  | 0          | 0          | 0          |   0.0 |  0.00
Other   |            | 0.005956   |            |       |  0.07

Nlocal:              8 ave           8 max           8 min
Histogram: 1 0 0 0 0 0 0 0 0 0
Nghost:           2217 ave        2217 max        2217 min
Histogram: 1 0 0 0 0 0 0 0 0 0
Neighs:             72 ave          72 max          72 min
Histogram: 1 0 0 0 0 0 0 0 0 0
FullNghs:         6654 ave        6654 max        6654 min
Histogram: 1 0 0 0 0 0 0 0 0 0

Total # of neighbors = 6654
Ave neighs/atom = 831.75
Neighbor list builds = 3
Dangerous builds = 0
write_data ./StructureDump/sample.2.dat 
System init for write_data ...
variable etot equal etotal
variable ptot equal press
variable pairp equal epair
variable numat equal atoms
run 0
WARNING: No fixes with time integration, atoms won't move (src/verlet.cpp:60)
Per MPI rank memory allocation (min/avg/max) = 3.993 | 3.993 | 3.993 Mbytes
   Step          Temp          E_pair         E_mol          TotEng         Press     
      1370   3.8401634e-12 -142.20563      0             -142.20563     -4589954.8    
Loop time of 4.0587e-05 on 1 procs for 0 steps with 8 atoms

162.6% CPU use with 1 MPI tasks x 1 OpenMP threads

MPI task timing breakdown:
Section |  min time  |  avg time  |  max time  |%varavg| %total
---------------------------------------------------------------
Pair    | 0          | 0          | 0          |   0.0 |  0.00
Neigh   | 0          | 0          | 0          |   0.0 |  0.00
Comm    | 0          | 0          | 0          |   0.0 |  0.00
Output  | 0          | 0          | 0          |   0.0 |  0.00
Modify  | 0          | 0          | 0          |   0.0 |  0.00
Other   |            | 4.059e-05  |            |       |100.00

Nlocal:              8 ave           8 max           8 min
Histogram: 1 0 0 0 0 0 0 0 0 0
Nghost:           2242 ave        2242 max        2242 min
Histogram: 1 0 0 0 0 0 0 0 0 0
Neighs:             68 ave          68 max          68 min
Histogram: 1 0 0 0 0 0 0 0 0 0
FullNghs:         6682 ave        6682 max        6682 min
Histogram: 1 0 0 0 0 0 0 0 0 0

Total # of neighbors = 6682
Ave neighs/atom = 835.25
Neighbor list builds = 0
Dangerous builds = 0
print "${etot} ${pairp} ${ptot} ${numat} " append Summary.dat screen no
Total wall time: 0:00:08
