mass 1 51.996100
pair_style hybrid/overlay soft 1.5 mliap model mliappy LATER descriptor ace coupling_coefficients.yace
Loading python model deferred.
pair_coeff * * soft 100.0
pair_coeff * * mliap   Cr

thermo 10
velocity all create 0.0001 4928459 dist gaussian
Loading python model complete.
min_style  fire
min_modify integrator eulerexplicit tmax 10.0 tmin 0.0 delaystep 5 dtgrow 1.1 dtshrink 0.5 alpha0 0.1 alphashrink 0.99 vdfmax 100000 halfstepback no initialdelay no
minimize 1e-12 1e-12 10000 100000
Neighbor list info ...
  update: every = 1 steps, delay = 0 steps, check = yes
  max neighbors/atom: 2000, page size: 100000
  master list distance cutoff = 13.209389
  ghost atom cutoff = 13.209389
  binsize = 6.6046944, bins = 1 1 1
  2 neighbor lists, perpetual/occasional/extra = 2 0 0
  (1) pair soft, perpetual, half/full trim from (2)
      attributes: half, newton on, cut 3.5
      pair build: halffull/trim/newton
      stencil: none
      bin: none
  (2) pair mliap, perpetual
      attributes: full, newton on
      pair build: full/bin/atomonly
      stencil: full/bin/3d
      bin: standard
  Parameters for fire:
    dmax  delaystep dtgrow dtshrink alpha0 alphashrink tmax tmin   integrator   halfstepback   abcfire  
     0.1      5      1.1     0.5     0.1      0.99      10   0   eulerexplicit       no          no     
Per MPI rank memory allocation (min/avg/max) = 3.995 | 3.995 | 3.995 Mbytes
   Step          Temp          E_pair         E_mol          TotEng         Press     
         0   0             -5.2976595      0             -5.2976595      324566.48    
        10   1515.0532     -6.6841917      0             -5.3133398      63993.595    
        20   2048.5389     -8.0116811      0             -6.1581201      81083.883    
        30   583.68686     -10.17831       0             -9.6501783     -24159.272    
        40   9455.2965     -13.072647      0             -4.5172957      623957.43    
        50   4338.0153     -17.760777      0             -13.835649     -143870.3     
        60   2377.94       -19.904142      0             -17.752532     -181862.71    
        70   9523.3788     -23.380454      0             -14.7635        688404.87    
        80   221.05583     -26.27309       0             -26.073074      62008.557    
        90   65.742767     -26.372505      0             -26.31302       47196.571    
       100   358.76253     -26.643038      0             -26.318422      2048.0658    
       110   148.09068     -27.672583      0             -27.538587      103568.77    
       120   360.11958     -28.269584      0             -27.94374       24046.892    
       130   107.28094     -28.354594      0             -28.257523     -1477.7901    
       140   778.48502     -28.970742      0             -28.266352      17368.261    
       150   871.71873     -30.914659      0             -30.125909     -23686.074    
       160   255.96014     -31.1336        0             -30.902002      56267.157    
       170   2688.6278     -33.190098      0             -30.757371      107311.87    
       180   313.73332     -35.53558       0             -35.251708     -27002.164    
       190   23.401555     -36.123111      0             -36.101936      192220.58    
       200   12.067914     -36.192808      0             -36.181889      97300.971    
       210   74.939869     -36.254646      0             -36.186839      146583.2     
       220   616.21466     -36.674866      0             -36.117302      122949.35    
       230   109.95045     -36.809282      0             -36.709797      139038.22    
       240   19.039174     -36.834629      0             -36.817402      108465.81    
       250   135.77932     -36.938083      0             -36.815227      116051       
       260   60.006425     -37.299231      0             -37.244936      52059.803    
       270   111.4357      -37.51694       0             -37.416111      147275.85    
       280   25.68626      -37.536845      0             -37.513604      181104.1     
       290   107.6225      -37.618912      0             -37.521533      149019.99    
       300   35.543556     -37.860546      0             -37.828385      204077.03    
       310   69.179839     -37.955579      0             -37.892983      177792.38    
       320   17.561422     -37.972398      0             -37.956508      184099.97    
       330   150.88051     -38.09339       0             -37.95687       199619.59    
       340   530.50768     -38.606544      0             -38.12653       104346.66    
       350   5.7123886     -38.692613      0             -38.687445      150904.94    
       360   54.874607     -38.740628      0             -38.690976      212690.78    
       370   9.8814171     -38.898836      0             -38.889895      259153.07    
       380   105.47239     -38.982678      0             -38.887245      223083.82    
       390   100.02414     -39.129185      0             -39.038681      256939.21    
       400   34.11155      -39.159213      0             -39.128349      206471.23    
       410   260.46546     -39.306276      0             -39.070601      178610.32    
       420   16.343461     -39.360813      0             -39.346025      238350.14    
       430   89.541791     -39.426249      0             -39.34523       231264.95    
       440   42.74911      -39.561034      0             -39.522354      234996.2     
       450   23.183354     -39.640146      0             -39.619169      215210.13    
       460   133.46882     -39.736701      0             -39.615936      182627.55    
       470   3.8338918     -39.89878       0             -39.895311      207503.53    
       480   75.3482       -39.960947      0             -39.89277       224146.1     
       490   635.20895     -40.712971      0             -40.138221      117139.05    
       500   81.10375      -40.252628      0             -40.179243      173891.31    
       510   849.40183     -40.904744      0             -40.136187      158788.15    
       520   64.067862     -42.030192      0             -41.972222      273777.4     
       530   47.999007     -42.212658      0             -42.169227      96638.723    
       540   283.66494     -42.439233      0             -42.182567      218021.27    
       550   2508.8906     -42.897285      0             -40.627188     -22648.397    
       560   2824.6728     -44.886634      0             -42.330811     -17862.348    
       570   273.43488     -45.315797      0             -45.068387     -6114.6733    
       580   2606.1993     -47.405028      0             -45.046884      50719.512    
       590   3335.054      -56.046524      0             -53.028898     -222654.91    
       600   920.32818     -56.826431      0             -55.993699     -50564.269    
       610   695.98383     -59.700868      0             -59.071127     -259810.45    
       620   809.43527     -60.97451       0             -60.242116     -232990.58    
       630   97.899763     -61.962921      0             -61.874339     -92340.948    
       640   43.354345     -62.296128      0             -62.2569       -78119.017    
       650   350.24627     -62.583199      0             -62.266289     -85159.318    
       660   2680.6162     -64.649158      0             -62.22368      -92625.764    
       670   172.65355     -65.441109      0             -65.284889     -140832.35    
       680   1481.3086     -66.607335      0             -65.267016     -196796.98    
       690   7101.8937     -73.036081      0             -66.610138     -318871.91    
       700   38.78624      -73.737858      0             -73.702764     -424313.07    
       710   913.3771      -74.482192      0             -73.655749     -349407.87    
       720   5415.8004     -78.617879      0             -73.717549     -204430.21    
       730   833.1127      -79.316575      0             -78.562758     -272168.28    
       740   472.02262     -79.814292      0             -79.387196     -320527.96    
       750   124.96375     -79.912572      0             -79.799503     -216026.74    
       760   389.10562     -80.182832      0             -79.830761     -295878.01    
       770   17.708809     -80.373453      0             -80.357429     -262086.8     
       780   119.57884     -80.477052      0             -80.368855     -190937.41    
       790   1251.2481     -82.215239      0             -81.083084     -175768.37    
       800   476.54567     -83.199568      0             -82.768379     -283352.07    
       810   36.841234     -83.248374      0             -83.215039     -287061.22    
       820   316.47329     -89.717991      0             -89.431639     -564565.09    
       830   532.99095     -91.010226      0             -90.527964     -665068.4     
       840   375.68886     -91.631415      0             -91.291484     -474107.65    
       850   2429.2382     -93.320137      0             -91.122111     -518887.95    
       860   591.78174     -94.227575      0             -93.692118     -383396.07    
       870   29.312593     -94.390956      0             -94.364433     -474709.56    
       880   137.72651     -94.38745       0             -94.262832     -511597.97    
       890   60.384687     -94.795985      0             -94.741347     -565861.33    
       900   159.84533     -95.054098      0             -94.909467     -548847.76    
       910   75.446846     -95.113931      0             -95.045665     -549619.01    
       920   398.37328     -95.36684       0             -95.006384     -574626.61    
       930   1361.3807     -96.880442      0             -95.648636     -661332.02    
       940   6.7607315     -97.026415      0             -97.020298     -679519.04    
       950   198.73385     -97.190597      0             -97.010778     -666485.15    
       960   1647.9252     -98.474281      0             -96.983204     -737368.86    
       970   4025.459      -101.01594      0             -97.373621     -997959.75    
       980   40.84478      -101.35419      0             -101.31724     -943919.11    
       990   445.40194     -103.28635      0             -102.88334     -1039397.1    
      1000   3204.2994     -104.03123      0             -101.13191     -935263.82    
      1010   164.04231     -106.29497      0             -106.14654     -976655.86    
      1020   916.26505     -106.99005      0             -106.16099     -1085705.7    
      1030   8.9541693     -107.95824      0             -107.95014     -1092592.1    
      1040   217.93937     -108.14576      0             -107.94857     -1035156.8    
      1050   1525.1234     -109.16423      0             -107.78427     -999485.3     
      1060   38.567596     -109.52241      0             -109.48751     -1060581.2    
      1070   304.40615     -107.85601      0             -107.58057     -954624.96    
      1080   100.22505     -110.32414      0             -110.23345     -1082740.5    
      1090   61.998249     -110.48015      0             -110.42405     -1070677.5    
      1100   510.49392     -110.79109      0             -110.32919     -1078206.1    
      1110   93.33604      -110.90298      0             -110.81853     -1081383.5    
      1120   6.6619252     -110.91306      0             -110.90703     -1094306.8    
      1130   65.35576      -110.94191      0             -110.88277     -1088771.7    
      1140   404.50107     -111.22644      0             -110.86044     -1068406.1    
      1150   9.9352771     -111.25973      0             -111.25074     -1096966.6    
      1160   90.800337     -111.30735      0             -111.22519     -1079107.1    
      1170   2.8409862     -111.40919      0             -111.40662     -1103915.6    
      1180   35.863016     -111.43823      0             -111.40578     -1100667.2    
      1190   48.362312     -111.05896      0             -111.0152      -1111443.1    
      1200   0.43217286    -111.5256       0             -111.52521     -1117794.6    
      1210   5.8869781     -111.07718      0             -111.07186     -1094821.3    
      1220   38.750534     -111.10747      0             -111.0724      -1098847.2    
      1230   1.0146611     -111.16386      0             -111.16294     -1098865.7    
      1240   0.74487908    -111.17234      0             -111.17166     -1109745.7    
      1250   7.8762247     -111.17852      0             -111.17139     -1105466.2    
      1260   49.885967     -111.2149       0             -111.16976     -1121031.6    
      1270   1.6384931     -111.22916      0             -111.22768     -1109019.1    
      1280   18.355603     -111.24327      0             -111.22666     -1104220.5    
      1290   0.89410736    -111.25772      0             -111.25691     -1106640.1    
      1300   7.6224644     -111.26317      0             -111.25627     -1108784.9    
      1310   0.018019772   -111.27398      0             -111.27397     -1110149.9    
      1320   2.2061683     -111.27583      0             -111.27383     -1113400.9    
      1330   20.168912     -111.29211      0             -111.27386     -1115703.6    
      1340   0.76181748    -111.31329      0             -111.3126      -1112198.5    
      1350   6.5736741     -111.31814      0             -111.31219     -1108878.9    
      1360   0.14438254    -111.32511      0             -111.32498     -1111833.3    
      1370   2.3829116     -111.32723      0             -111.32507     -1119145.5    
      1380   22.4946       -111.34134      0             -111.32098     -1123568.5    
      1390   3.5148046     -111.3468       0             -111.34362     -1119897.8    
      1400   0.70288836    -111.34759      0             -111.34695     -1116562.9    
      1410   4.4625837     -111.35093      0             -111.3469      -1116617.5    
      1420   1.5876369     -111.36474      0             -111.36331     -1114443.2    
      1430   1.26838       -111.36658      0             -111.36543     -1117720.9    
      1440   11.136324     -111.37468      0             -111.36461     -1116370.7    
      1450   0.17669742    -111.38661      0             -111.38645     -1120288.6    
      1460   4.5394699     -111.39028      0             -111.38617     -1120308.6    
      1470   39.998192     -111.40449      0             -111.3683      -1148724.7    
      1480   0.12493001    -111.42102      0             -111.42091     -1129188.9    
      1490   1.6584731     -111.42254      0             -111.42104     -1120953.6    
      1500   10.911391     -111.42951      0             -111.41964     -1114749.8    
      1510   7.2372612     -111.43689      0             -111.43034     -1112690.6    
      1520   0.33081388    -111.44263      0             -111.44233     -1128038.8    
      1530   2.9083505     -111.44492      0             -111.44229     -1126304.7    
      1540   20.678336     -111.46007      0             -111.44136     -1137044.6    
      1550   9.8351445     -111.4772       0             -111.4683      -1134114.9    
      1560   0.83088922    -111.47837      0             -111.47761     -1130411.4    
      1570   7.0403026     -111.48396      0             -111.47759     -1128475.4    
      1580   17.893135     -111.48545      0             -111.46926     -1167864.7    
      1590   0.1851252     -111.51781      0             -111.51764     -1136749.6    
      1600   2.3230177     -111.51979      0             -111.51769     -1130821.2    
      1610   17.680193     -111.53364      0             -111.51764     -1127153.6    
      1620   3.1445798     -111.54388      0             -111.54104     -1130078.3    
      1630   0.62052036    -111.54551      0             -111.54495     -1137259      
      1640   4.6758555     -111.54918      0             -111.54494     -1135255.7    
      1650   29.02818      -111.56771      0             -111.54144     -1154726.3    
      1660   1.9175254     -111.59049      0             -111.58875     -1138766.6    
      1670   15.958485     -111.60231      0             -111.58787     -1142477.5    
      1680   0.63153942    -111.6069       0             -111.60633     -1143065.1    
      1690   5.9907174     -111.6117       0             -111.60628     -1139765.9    
      1700   2.0413857     -111.63357      0             -111.63172     -1157283      
      1710   5.3073364     -111.6415       0             -111.6367      -1146328.4    
      1720   1.5489986     -111.64274      0             -111.64134     -1142583.7    
      1730   10.828822     -111.65125      0             -111.64145     -1146621.5    
      1740   6.1038905     -111.68719      0             -111.68167     -1126916.7    
      1750   0.094449413   -111.66017      0             -111.66009     -1137311.5    
      1760   2.7002116     -111.66242      0             -111.65998     -1140581      
      1770   21.3851       -111.67885      0             -111.6595      -1146588.2    
      1780   0.64497318    -111.69594      0             -111.69535     -1146227.4    
      1790   7.8627757     -111.7022       0             -111.69509     -1142065.6    
      1800   10.719835     -111.7106       0             -111.7009      -1177440.4    
      1810   2.5738706     -111.73998      0             -111.73765     -1147137.9    
      1820   26.981569     -111.7619       0             -111.73749     -1153654.6    
      1830   3.0277501     -111.77721      0             -111.77447     -1153453.8    
      1840   0.84635346    -111.7791       0             -111.77833     -1147080.9    
      1850   6.8610728     -111.78443      0             -111.77822     -1149103.2    
      1860   1.1956761     -111.85435      0             -111.85326     -1150533      
      1870   2.9961712     -111.86026      0             -111.85755     -1159633      
      1880   18.278213     -111.87356      0             -111.85702     -1165351.1    
      1890   7.2395225     -111.88148      0             -111.87492     -1167710.6    
      1900   3.3089332     -111.88663      0             -111.88364     -1170381.7    
      1910   0.55219421    -111.90226      0             -111.90176     -1167841.5    
      1920   11.734928     -111.91162      0             -111.90101     -1173271.1    
      1930   0.42841323    -111.92058      0             -111.92019     -1170651.4    
      1940   5.1226952     -111.92484      0             -111.9202      -1165407.7    
      1950   41.491428     -111.93748      0             -111.89994     -1194980.9    
      1960   1.2570639     -111.95542      0             -111.95428     -1171043.8    
      1970   16.364466     -111.92238      0             -111.90757     -1161128.8    
      1980   174.35786     -111.96916      0             -111.8114      -1169449      
      1990   2.5166088     -111.97258      0             -111.9703      -1163598      
      2000   0.2605959     -111.97357      0             -111.97334     -1171876.4    
      2010   2.105885      -111.97525      0             -111.97335     -1170029.8    
      2020   14.993847     -111.986        0             -111.97243     -1177072.9    
      2030   0.62563102    -111.99507      0             -111.9945      -1175230.6    
      2040   3.2510628     -111.9973       0             -111.99436     -1179842.4    
      2050   1.2045186     -112.0004       0             -111.99931     -1177655.5    
      2060   0.56832154    -112.00401      0             -112.00349     -1174932.3    
      2070   7.0904426     -112.00655      0             -112.00013     -1169151      
      2080   0.44348971    -112.0081       0             -112.0077      -1176292.7    
      2090   1.741726      -112.00936      0             -112.00778     -1179366      
      2100   0.0483988     -112.01106      0             -112.01101     -1178729      
      2110   0.5183965     -112.01154      0             -112.01107     -1174224.1    
      2120   0.21345104    -112.01336      0             -112.01317     -1174080.4    
      2130   0.15793434    -112.01373      0             -112.01358     -1176852.5    
      2140   1.0811364     -112.01456      0             -112.01358     -1178041.8    
      2150   2.8653703     -112.01729      0             -112.0147      -1177441.2    
      2160   0.0055783457  -112.01743      0             -112.01742     -1177561.2    
      2170   0.14497656    -112.01755      0             -112.01741     -1177000.3    
      2180   1.2534488     -112.01849      0             -112.01736     -1177049.4    
      2190   0.0019004996  -112.02055      0             -112.02055     -1178280.9    
      2200   0.2247373     -112.02075      0             -112.02054     -1177808      
      2210   1.7819362     -112.02173      0             -112.02011     -1181903.9    
      2220   0.093786511   -112.02238      0             -112.02229     -1177736.3    
      2230   0.047613778   -112.02241      0             -112.02236     -1178718.8    
      2240   0.28297779    -112.02262      0             -112.02237     -1178227.4    
      2250   0.0099934278  -112.02291      0             -112.0229      -1180709.3    
      2260   0.008146881   -112.02302      0             -112.02302     -1178091.4    
      2270   0.042997107   -112.02306      0             -112.02302     -1179288.1    
      2280   0.0034882466  -112.02324      0             -112.02323     -1179629.6    
      2290   0.011851866   -112.02327      0             -112.02326     -1178497.2    
      2300   0.07133941    -112.02332      0             -112.02325     -1178981.6    
      2310   0.011163325   -112.07246      0             -112.07245     -1185717.9    
      2320   0.015950709   -112.07261      0             -112.0726      -1188732      
      2330   0.11182685    -112.07267      0             -112.07257     -1186399.8    
      2340   0.0029479266  -112.07273      0             -112.07273     -1188482.2    
      2350   0.026888664   -112.07275      0             -112.07272     -1187917.2    
      2360   0.14952644    -112.07285      0             -112.07272     -1186988.6    
      2370   0.0079200548  -112.07294      0             -112.07293     -1188054.5    
      2380   0.047126223   -112.07298      0             -112.07294     -1188097.6    
      2390   0.00014024148 -112.07303      0             -112.07303     -1188167.3    
      2400   0.010860456   -112.07304      0             -112.07303     -1188594.5    
      2410   0.079012669   -112.0731       0             -112.07303     -1189020.9    
      2420   0.0021612536  -112.07314      0             -112.07314     -1188632.5    
      2430   0.023089372   -112.07316      0             -112.07313     -1188689      
      2440   0.010341359   -112.07321      0             -112.0732      -1188647.7    
      2450   0.0054550328  -112.07322      0             -112.07322     -1188805.1    
      2460   0.0010976494  -112.07326      0             -112.07326     -1189067.3    
      2470   0.0031759008  -112.07326      0             -112.07325     -1188579.8    
      2480   0.014148214   -112.07326      0             -112.07325     -1188476.1    
      2490   5.1529794e-05 -112.07329      0             -112.07329     -1188548.2    
      2500   0.0034848764  -112.07329      0             -112.07329     -1188818.8    
      2510   0.024622588   -112.0733       0             -112.07328     -1189083.3    
      2520   0.0075740816  -112.07333      0             -112.07332     -1189214.1    
      2530   0.0004198093  -112.07332      0             -112.07332     -1188743.8    
      2540   0.0044657166  -112.07332      0             -112.07332     -1188802.9    
      2550   0.029861257   -112.07336      0             -112.07333     -1188610      
      2560   0.00060489041 -112.07336      0             -112.07336     -1188861      
      2570   0.0083900822  -112.07338      0             -112.07337     -1188862.1    
      2580   0.022222646   -112.0734       0             -112.07338     -1188664.3    
      2590   0.00020149554 -112.0734       0             -112.07339     -1188981.3    
      2600   0.0019715269  -112.0734       0             -112.0734      -1188925.8    
      2610   0.012156563   -112.07341      0             -112.0734      -1189286.4    
      2620   0.002764256   -112.07341      0             -112.07341     -1188992.8    
      2630   0.00053358419 -112.07341      0             -112.07341     -1188991.2    
      2640   0.002551779   -112.07342      0             -112.07341     -1189054.7    
      2650   0.00099575799 -112.07341      0             -112.07341     -1189028.1    
      2660   0.00058936891 -112.07341      0             -112.07341     -1189046.4    
      2670   0.0048447129  -112.07342      0             -112.07342     -1189164.6    
      2680   0.00011094964 -112.07342      0             -112.07342     -1189046.2    
      2690   0.0019706571  -112.07343      0             -112.07343     -1189068.5    
      2700   0.0042486734  -112.07343      0             -112.07343     -1188595.3    
      2710   0.0001144709  -112.07343      0             -112.07343     -1188989.6    
      2720   0.00050027857 -112.07344      0             -112.07344     -1189158.2    
      2730   0.010667531   -112.02437      0             -112.02436     -1177259.3    
      2740   0.0044441414  -112.02441      0             -112.0244      -1180184.7    
      2750   0.028915269   -112.02443      0             -112.0244      -1179933.8    
      2760   0.1777702     -112.02447      0             -112.0243      -1184433.1    
      2770   0.0452898     -112.02451      0             -112.02447     -1180348.7    
      2780   0.0021785021  -112.02451      0             -112.02451     -1180108.3    
      2790   0.018648424   -112.02453      0             -112.02452     -1180310.1    
      2800   0.10003504    -112.02456      0             -112.02447     -1175892.3    
      2810   0.00025788087 -112.0246       0             -112.0246      -1179728.9    
      2820   0.0026311679  -112.0246       0             -112.0246      -1180500.8    
      2830   0.00070516571 -112.02462      0             -112.02462     -1180526.6    
      2840   0.0017112546  -112.02463      0             -112.02463     -1180106.1    
      2850   0.006297982   -112.02463      0             -112.02463     -1180045.1    
      2860   1.6050193e-05 -112.02463      0             -112.02463     -1180117.7    
      2870   0.0014792621  -112.02464      0             -112.02464     -1180248.4    
      2880   0.011939187   -112.02465      0             -112.02464     -1180366.6    
      2890   0.0015910882  -112.02466      0             -112.02466     -1180426.7    
      2900   0.00038727235 -112.02466      0             -112.02466     -1180160.1    
      2910   0.0023436458  -112.02466      0             -112.02466     -1180275.3    
      2920   0.018634636   -112.02466      0             -112.02465     -1180083.2    
      2930   0.00066684785 -112.02468      0             -112.02468     -1180262.1    
      2940   0.0046008657  -112.02467      0             -112.02467     -1180362.4    
      2950   1.293236e-05  -112.02469      0             -112.02469     -1180251.8    
      2960   0.001655937   -112.02469      0             -112.02469     -1180299.7    
      2970   0.013177929   -112.0247       0             -112.02469     -1180043.5    
      2980   0.015500565   -112.02471      0             -112.02469     -1180482.3    
      2990   0.0010812845  -112.0247       0             -112.0247      -1180259.4    
      3000   0.00038257387 -112.02469      0             -112.02469     -1180321.8    
      3010   0.0020635648  -112.02471      0             -112.02471     -1180280.2    
      3020   0.00089872065 -112.02471      0             -112.02471     -1180322.9    
      3030   0.00048193102 -112.02471      0             -112.02471     -1180315.5    
      3040   0.0040427959  -112.02472      0             -112.02471     -1180241.1    
      3050   0.0013010765  -112.02472      0             -112.02472     -1180196.8    
      3060   9.8963182e-05 -112.02473      0             -112.02473     -1180390.8    
      3070   0.00088005665 -112.02471      0             -112.02471     -1180364.9    
      3080   0.0055251742  -112.02472      0             -112.02472     -1180543.7    
      3090   0.0001550808  -112.02472      0             -112.02472     -1180397.8    
      3100   0.0019329898  -112.02473      0             -112.02473     -1180411.6    
      3110   4.5050672e-05 -112.02473      0             -112.02473     -1180359.9    
      3120   0.00072466696 -112.02473      0             -112.02473     -1180429.7    
      3130   0.0010653815  -112.02473      0             -112.02473     -1180405      
      3140   0.00021191426 -112.02473      0             -112.02473     -1180431.6    
      3150   0.002084322   -112.02474      0             -112.02474     -1180460      
      3160   4.4687383e-05 -112.02473      0             -112.02473     -1180400.8    
      3170   0.00072052061 -112.02474      0             -112.02474     -1180411.4    
      3180   3.2479885e-06 -112.02473      0             -112.02473     -1180412.2    
      3190   0.00019888106 -112.02474      0             -112.02474     -1180478.8    
      3200   0.00143865    -112.02474      0             -112.02474     -1180550      
      3210   0.00024851913 -112.02474      0             -112.02474     -1180505.4    
      3220   5.023221e-05  -112.02474      0             -112.02474     -1180445.4    
      3230   0.00033888205 -112.02474      0             -112.02474     -1180465.3    
      3240   3.1619922e-05 -112.02474      0             -112.02474     -1180414.3    
      3250   8.8949887e-05 -112.02474      0             -112.02474     -1180466.5    
      3260   0.00070949529 -112.02475      0             -112.02475     -1180487.4    
      3270   5.326453e-06  -112.02474      0             -112.02474     -1180475.9    
      3280   0.0002527407  -112.02475      0             -112.02475     -1180482.5    
      3290   0.0022414871  -112.02475      0             -112.02474     -1180525.8    
      3300   1.2046756e-06 -112.02475      0             -112.02475     -1180526.5    
      3310   7.4508904e-05 -112.02475      0             -112.02475     -1180482.4    
      3320   0.00055451246 -112.02474      0             -112.02474     -1180473.6    
      3330   0.00011134253 -112.02475      0             -112.02475     -1180413.3    
      3340   8.5684155e-06 -112.02475      0             -112.02475     -1180515.2    
      3350   9.3645628e-05 -112.02475      0             -112.02475     -1180501.9    
      3360   0.00071407894 -112.02475      0             -112.02475     -1180524.3    
      3370   2.547509e-05  -112.02475      0             -112.02475     -1180536.3    
      3380   0.0001820665  -112.02475      0             -112.02475     -1180547.8    
      3390   2.0447546e-06 -112.02475      0             -112.02475     -1180532      
      3400   6.308034e-05  -112.02474      0             -112.02474     -1180513.8    
      3410   0.00055967105 -112.02476      0             -112.02476     -1180544.6    
      3420   2.1148296e-05 -112.02475      0             -112.02475     -1180535.2    
      3430   0.00015742384 -112.02475      0             -112.02475     -1180557.2    
      3440   3.9469849e-06 -112.02475      0             -112.02475     -1180537      
      3450   6.9880646e-05 -112.02475      0             -112.02475     -1180534.2    
      3460   0.00054511916 -112.02475      0             -112.02475     -1180557.9    
      3470   4.1111424e-05 -112.02475      0             -112.02475     -1180529      
      3480   1.6714626e-05 -112.02476      0             -112.02476     -1180544.4    
      3490   0.00010889435 -112.02475      0             -112.02475     -1180534.7    
      3500   7.2463581e-07 -112.02475      0             -112.02475     -1180560.8    
      3510   3.0054283e-05 -112.02475      0             -112.02475     -1180532.8    
      3520   1.4775977e-05 -112.02475      0             -112.02475     -1180539.2    
      3530   5.8145839e-06 -112.02475      0             -112.02475     -1180531.5    
      3540   6.0886097e-06 -112.02475      0             -112.02475     -1180557.1    
      3550   3.5943421e-05 -112.02476      0             -112.02476     -1180544      
      3560   0.00031517737 -112.02476      0             -112.02476     -1180608.3    
      3570   9.0794273e-05 -112.02475      0             -112.02475     -1180555      
      3580   4.8313012e-06 -112.02476      0             -112.02476     -1180552.3    
      3590   4.7935155e-05 -112.02476      0             -112.02476     -1180555.2    
      3600   0.00027768542 -112.02475      0             -112.02475     -1180515.7    
      3610   5.2728779e-08 -112.02475      0             -112.02475     -1180561.4    
      3620   8.1548638e-06 -112.02476      0             -112.02476     -1180559.4    
      3630   8.0593483e-05 -112.02475      0             -112.02475     -1180559.7    
      3640   0.00051233794 -112.02475      0             -112.02475     -1180491.6    
      3650   1.6435802e-06 -112.02475      0             -112.02475     -1180568.2    
      3660   1.7669502e-05 -112.02475      0             -112.02475     -1180570.3    
      3670   0.0002053687  -112.02475      0             -112.02475     -1180522.2    
      3680   1.5655137e-07 -112.02475      0             -112.02475     -1180565.9    
      3690   3.9522265e-06 -112.02475      0             -112.02475     -1180573.6    
      3700   2.9644673e-05 -112.02475      0             -112.02475     -1180579.9    
      3710   3.1474627e-06 -112.02476      0             -112.02476     -1180581.4    
      3720   7.1619862e-07 -112.02475      0             -112.02475     -1180569.6    
      3730   5.7017153e-06 -112.02475      0             -112.02475     -1180574.3    
      3740   4.2913699e-05 -112.02476      0             -112.02476     -1180567      
      3750   1.4127627e-06 -112.02474      0             -112.02474     -1180573.3    
      3760   1.1221251e-05 -112.02475      0             -112.02475     -1180568.7    
      3770   3.2369968e-07 -112.02476      0             -112.02476     -1180572.3    
      3780   4.1039691e-06 -112.02476      0             -112.02476     -1180577.8    
      3790   3.7601782e-05 -112.02475      0             -112.02475     -1180564.4    
      3800   4.1014826e-06 -112.02475      0             -112.02475     -1180576.6    
      3810   8.9642019e-07 -112.02475      0             -112.02475     -1180576.4    
      3820   6.3268061e-06 -112.02475      0             -112.02475     -1180574.9    
      3830   2.8759468e-06 -112.02475      0             -112.02475     -1180576.7    
      3840   1.5148741e-06 -112.02475      0             -112.02475     -1180576.2    
      3850   1.2605424e-05 -112.02475      0             -112.02475     -1180571.9    
      3860   4.2823451e-06 -112.02475      0             -112.02475     -1180569.4    
      3870   3.204076e-07  -112.02476      0             -112.02476     -1180580.6    
      3880   2.7652394e-06 -112.02475      0             -112.02475     -1180579      
      3890   1.720014e-05  -112.02476      0             -112.02476     -1180589.4    
      3900   4.6289476e-07 -112.02476      0             -112.02476     -1180580.9    
      3910   6.0976573e-06 -112.02476      0             -112.02476     -1180581.5    
      3920   1.6647293e-07 -112.02476      0             -112.02476     -1180578.5    
      3930   2.3645083e-06 -112.02476      0             -112.02476     -1180582.9    
      3940   3.8363401e-06 -112.02474      0             -112.02474     -1180581.3    
      3950   6.6768006e-07 -112.02475      0             -112.02475     -1180582.9    
      3960   6.4589708e-06 -112.02475      0             -112.02475     -1180584.7    
      3970   1.2872959e-07 -112.02475      0             -112.02475     -1180581.3    
      3980   2.2003759e-06 -112.02475      0             -112.02475     -1180581.8    
      3990   1.0755309e-08 -112.02476      0             -112.02476     -1180581.7    
      4000   6.252865e-07  -112.02475      0             -112.02475     -1180585.6    
      4010   4.4605026e-06 -112.02475      0             -112.02475     -1180589.8    
      4020   7.7508571e-07 -112.02475      0             -112.02475     -1180587      
      4030   1.5789583e-07 -112.02475      0             -112.02475     -1180583.7    
      4040   1.0613562e-06 -112.02476      0             -112.02476     -1180584.8    
      4050   1.0247766e-07 -112.02475      0             -112.02475     -1180581.9    
      4060   2.8393758e-07 -112.02475      0             -112.02475     -1180584.8    
      4070   2.2201683e-06 -112.02475      0             -112.02475     -1180586.1    
      4080   1.695743e-08  -112.02475      0             -112.02475     -1180585.3    
      4090   7.9090553e-07 -112.02475      0             -112.02475     -1180585.7    
      4100   7.1322613e-06 -112.02475      0             -112.02475     -1180587.9    
      4110   4.2837032e-09 -112.02476      0             -112.02476     -1180588.3    
      4120   2.4135775e-07 -112.02475      0             -112.02475     -1180585.6    
      4130   1.7687945e-06 -112.02475      0             -112.02475     -1180585.2    
      4140   4.2335072e-07 -112.02475      0             -112.02475     -1180581.3    
      4150   2.9207735e-08 -112.02475      0             -112.02475     -1180587.6    
      4160   2.9438366e-07 -112.02475      0             -112.02475     -1180586.8    
      4170   2.2162577e-06 -112.02475      0             -112.02475     -1180588      
      4180   6.1058349e-07 -112.02475      0             -112.02475     -1180590.5    
      4190   5.59585e-08   -112.02475      0             -112.02475     -1180587.7    
      4200   4.8992282e-07 -112.02476      0             -112.02476     -1180587.3    
      4210   4.3160188e-06 -112.02476      0             -112.02476     -1180597.5    
      4220   5.1433549e-09 -112.02475      0             -112.02475     -1180589.3    
      4230   1.0578402e-07 -112.02476      0             -112.02476     -1180587.8    
      4240   7.5044891e-07 -112.02476      0             -112.02476     -1180586.9    
      4250   1.0084254e-07 -112.02475      0             -112.02475     -1180587      
      4260   2.1299595e-08 -112.02476      0             -112.02476     -1180589.2    
      4270   1.4931693e-07 -112.02476      0             -112.02476     -1180588.4    
      4280   1.1431406e-06 -112.02476      0             -112.02476     -1180589.9    
      4290   2.8243383e-07 -112.02476      0             -112.02476     -1180588.4    
      4300   4.6051806e-08 -112.02475      0             -112.02475     -1180589.3    
      4310   2.1240662e-07 -112.02476      0             -112.02476     -1180589.4    
      4320   2.1071706e-08 -112.02476      0             -112.02476     -1180589.7    
      4330   4.8793214e-07 -112.02476      0             -112.02476     -1180590.3    
      4340   2.4942067e-08 -112.02476      0             -112.02476     -1180589.6    
      4350   1.9228729e-07 -112.02476      0             -112.02476     -1180590      
      4360   6.471291e-07  -112.02476      0             -112.02476     -1180589.6    
      4370   1.6227534e-09 -112.02476      0             -112.02476     -1180589.8    
      4380   3.6336015e-08 -112.02476      0             -112.02476     -1180589.4    
      4390   3.0752788e-07 -112.02476      0             -112.02476     -1180589.4    
      4400   7.0927883e-10 -112.02476      0             -112.02476     -1180590.1    
      4410   7.9236225e-08 -112.02476      0             -112.02476     -1180589.8    
      4420   6.3119131e-08 -112.02476      0             -112.02476     -1180592.3    
      4430   2.6545175e-08 -112.02476      0             -112.02476     -1180590.2    
      4440   2.5430761e-07 -112.02476      0             -112.02476     -1180590.9    
      4450   5.7979184e-08 -112.02475      0             -112.02475     -1180590.8    
      4460   5.5591026e-09 -112.02475      0             -112.02475     -1180590.1    
      4470   5.8670194e-08 -112.02475      0             -112.02475     -1180590.2    
      4480   4.0245298e-07 -112.02475      0             -112.02475     -1180590      
      4490   1.3903283e-08 -112.02475      0             -112.02475     -1180590.5    
      4500   1.3699451e-07 -112.02475      0             -112.02475     -1180590.8    
      4510   4.7041631e-09 -112.02475      0             -112.02475     -1180590.8    
      4520   5.2314099e-08 -112.02475      0             -112.02475     -1180590.9    
      4530   3.8403899e-10 -112.02475      0             -112.02475     -1180591      
      4540   1.6011458e-08 -112.02475      0             -112.02475     -1180590.3    
      4550   3.0723115e-09 -112.02475      0             -112.02475     -1180589.9    
      4560   7.5223188e-09 -112.02475      0             -112.02475     -1180590.8    
      4570   4.1242948e-08 -112.02475      0             -112.02475     -1180590.9    
      4580   1.6652067e-07 -112.02476      0             -112.02476     -1180592.1    
      4590   2.6558988e-10 -112.02476      0             -112.02476     -1180591      
      4600   7.9122343e-09 -112.02475      0             -112.02475     -1180590.7    
      4610   5.5323614e-08 -112.02476      0             -112.02476     -1180590.8    
      4620   7.1591199e-10 -112.02476      0             -112.02476     -1180590.3    
      4630   6.6591346e-10 -112.02476      0             -112.02476     -1180591      
      4640   8.8846099e-09 -112.02476      0             -112.02476     -1180590.8    
      4650   6.7923905e-08 -112.02476      0             -112.02476     -1180590.6    
      4660   9.5167276e-10 -112.02476      0             -112.02476     -1180591.2    
      4670   2.1102103e-08 -112.02476      0             -112.02476     -1180591.1    
      4680   1.6239624e-07 -112.02476      0             -112.02476     -1180592.2    
      4690   6.9531175e-09 -112.02476      0             -112.02476     -1180591.4    
      4700   7.0025832e-09 -112.02476      0             -112.02476     -1180591.2    
      4710   4.0213401e-08 -112.02476      0             -112.02476     -1180590.9    
      4720   1.8800778e-09 -112.02476      0             -112.02476     -1180590.9    
      4730   1.1847841e-08 -112.02476      0             -112.02476     -1180591.2    
      4740   1.0459466e-08 -112.02476      0             -112.02476     -1180591.2    
      4750   3.6850495e-09 -112.02476      0             -112.02476     -1180591.2    
      4760   2.4538382e-08 -112.02476      0             -112.02476     -1180591.1    
      4770   1.6448349e-09 -112.02476      0             -112.02476     -1180592      
      4780   3.9857826e-10 -112.02476      0             -112.02476     -1180591.1    
      4790   4.3254014e-09 -112.02476      0             -112.02476     -1180591.3    
      4800   3.2229097e-08 -112.02476      0             -112.02476     -1180591.4    
      4810   7.783239e-09  -112.02476      0             -112.02476     -1180590.7    
      4820   1.0246422e-09 -112.02476      0             -112.02476     -1180591.4    
      4830   7.5758325e-09 -112.02476      0             -112.02476     -1180591.4    
      4832   1.0553707e-08 -112.02476      0             -112.02476     -1180591.4    
Loop time of 30.6454 on 1 procs for 4832 steps with 8 atoms

99.7% CPU use with 1 MPI tasks x 1 OpenMP threads

Minimization stats:
  Stopping criterion = energy tolerance
  Energy initial, next-to-last, final = 
     -5.29765952614325  -112.024761072327  -112.024761072297
  Force two-norm initial, final = 47.839683 5.7696526e-05
  Force max component initial, final = 30.592879 2.8536112e-05
  Final line search alpha, max atom move = 0 0
  Iterations, force evaluations = 4832 5222

MPI task timing breakdown:
Section |  min time  |  avg time  |  max time  |%varavg| %total
---------------------------------------------------------------
Pair    | 30.565     | 30.565     | 30.565     |   0.0 | 99.74
Neigh   | 0.00052973 | 0.00052973 | 0.00052973 |   0.0 |  0.00
Comm    | 0.053788   | 0.053788   | 0.053788   |   0.0 |  0.18
Output  | 0.0049505  | 0.0049505  | 0.0049505  |   0.0 |  0.02
Modify  | 0          | 0          | 0          |   0.0 |  0.00
Other   |            | 0.02078    |            |       |  0.07

Nlocal:              8 ave           8 max           8 min
Histogram: 1 0 0 0 0 0 0 0 0 0
Nghost:           2512 ave        2512 max        2512 min
Histogram: 1 0 0 0 0 0 0 0 0 0
Neighs:             65 ave          65 max          65 min
Histogram: 1 0 0 0 0 0 0 0 0 0
FullNghs:         6666 ave        6666 max        6666 min
Histogram: 1 0 0 0 0 0 0 0 0 0

Total # of neighbors = 6666
Ave neighs/atom = 833.25
Neighbor list builds = 4
Dangerous builds = 0
write_data ./StructureDump/sample.6.dat 
System init for write_data ...
variable etot equal etotal
variable ptot equal press
variable pairp equal epair
variable numat equal atoms
run 0
WARNING: No fixes with time integration, atoms won't move (src/verlet.cpp:60)
Per MPI rank memory allocation (min/avg/max) = 3.995 | 3.995 | 3.995 Mbytes
   Step          Temp          E_pair         E_mol          TotEng         Press     
      4832   1.0553707e-08 -112.02476      0             -112.02476     -712111.51    
Loop time of 2.1233e-05 on 1 procs for 0 steps with 8 atoms

103.6% CPU use with 1 MPI tasks x 1 OpenMP threads

MPI task timing breakdown:
Section |  min time  |  avg time  |  max time  |%varavg| %total
---------------------------------------------------------------
Pair    | 0          | 0          | 0          |   0.0 |  0.00
Neigh   | 0          | 0          | 0          |   0.0 |  0.00
Comm    | 0          | 0          | 0          |   0.0 |  0.00
Output  | 0          | 0          | 0          |   0.0 |  0.00
Modify  | 0          | 0          | 0          |   0.0 |  0.00
Other   |            | 2.123e-05  |            |       |100.00

Nlocal:              8 ave           8 max           8 min
Histogram: 1 0 0 0 0 0 0 0 0 0
Nghost:           2512 ave        2512 max        2512 min
Histogram: 1 0 0 0 0 0 0 0 0 0
Neighs:             67 ave          67 max          67 min
Histogram: 1 0 0 0 0 0 0 0 0 0
FullNghs:         6648 ave        6648 max        6648 min
Histogram: 1 0 0 0 0 0 0 0 0 0

Total # of neighbors = 6648
Ave neighs/atom = 831
Neighbor list builds = 0
Dangerous builds = 0
print "${etot} ${pairp} ${ptot} ${numat} " append Summary.dat screen no
Total wall time: 0:00:30
