mass 1 51.996100
pair_style hybrid/overlay soft 1.5 mliap model mliappy LATER descriptor ace coupling_coefficients.yace
Loading python model deferred.
pair_coeff * * soft 100.0
pair_coeff * * mliap   Cr

thermo 10
velocity all create 0.0001 4928459 dist gaussian
Loading python model complete.
min_style  fire
min_modify integrator eulerexplicit tmax 10.0 tmin 0.0 delaystep 5 dtgrow 1.1 dtshrink 0.5 alpha0 0.1 alphashrink 0.99 vdfmax 100000 halfstepback no initialdelay no
minimize 1e-12 1e-12 10000 100000
Neighbor list info ...
  update: every = 1 steps, delay = 0 steps, check = yes
  max neighbors/atom: 2000, page size: 100000
  master list distance cutoff = 13.209389
  ghost atom cutoff = 13.209389
  binsize = 6.6046944, bins = 1 1 1
  2 neighbor lists, perpetual/occasional/extra = 2 0 0
  (1) pair soft, perpetual, half/full trim from (2)
      attributes: half, newton on, cut 3.5
      pair build: halffull/trim/newton
      stencil: none
      bin: none
  (2) pair mliap, perpetual
      attributes: full, newton on
      pair build: full/bin/atomonly
      stencil: full/bin/3d
      bin: standard
  Parameters for fire:
    dmax  delaystep dtgrow dtshrink alpha0 alphashrink tmax tmin   integrator   halfstepback   abcfire  
     0.1      5      1.1     0.5     0.1      0.99      10   0   eulerexplicit       no          no     
Per MPI rank memory allocation (min/avg/max) = 3.989 | 3.989 | 3.989 Mbytes
   Step          Temp          E_pair         E_mol          TotEng         Press     
         0   0             -5.3284929      0             -5.3284929      316431.94    
        10   2497.7899     -7.3819318      0             -5.121879       22792.696    
        20   6657.6821     -11.812921      0             -5.7889099     -57188.496    
        30   1945.7241     -14.086673      0             -12.326141     -163967.19    
        40   2877.2721     -24.083507      0             -21.48009      -342733.85    
        50   1703.6837     -29.270363      0             -27.728834     -211781.55    
        60   977.1845      -31.557343      0             -30.673166     -110069.73    
        70   401.729       -33.581577      0             -33.218084     -224787.13    
        80   3159.6355     -36.119925      0             -33.26102      -102409.17    
        90   3394.7397     -40.586211      0             -37.514579     -324987.65    
       100   43.412958     -41.817507      0             -41.778226     -135344.89    
       110   944.24842     -42.612997      0             -41.758621     -302979.25    
       120   7596.8398     -48.689855      0             -41.816075     -522712.21    
       130   334.77827     -55.257184      0             -54.95427      -652925.97    
       140   3693.3631     -58.214514      0             -54.872682     -483768.53    
       150   8.2424649     -59.770937      0             -59.763479     -465041.21    
       160   760.69503     -60.393279      0             -59.704987     -651120.75    
       170   4276.6328     -61.788887      0             -57.9193       -35018.87     
       180   8845.8147     -68.608257      0             -60.604378     -1127694.3    
       190   2273.2406     -72.077865      0             -70.020989     -552035.51    
       200   1057.8621     -78.431461      0             -77.474285     -998687.89    
       210   859.63035     -80.523816      0             -79.746004     -937769.14    
       220   4740.2412     -84.223153      0             -79.934083     -1096629.2    
       230   15388.78      -86.79093       0             -72.866838     -839734.97    
       240   1993.4035     -89.971174      0             -88.167501     -1379512.5    
       250   1787.3658     -92.087526      0             -90.47028      -1269999      
       260   525.07276     -93.230208      0             -92.755112     -1300534.2    
       270   2109.8844     -93.325163      0             -91.416095     -1413304.9    
       280   5223.8802     -95.648044      0             -90.921367     -1553208.4    
       290   1475.0753     -96.921282      0             -95.586603     -1195092.9    
       300   559.47158     -119.34831      0             -118.84209     -663849.66    
       310   1720.5107     -122.70613      0             -121.14938     -1474038.8    
       320   406.30961     -123.37374      0             -123.00611     -1369979.5    
       330   2136.281      -124.9281       0             -122.99515     -1400851.4    
       340   1939.7085     -128.90881      0             -127.15372     -1271943.3    
       350   1.9297189     -129.97264      0             -129.97089     -1197795      
       360   191.71682     -130.12744      0             -129.95397     -1193483.6    
       370   1111.5114     -131.00705      0             -130.00133     -1156705.4    
       380   2168.5453     -132.40036      0             -130.43821     -1103887.9    
       390   15.590834     -132.84674      0             -132.83263     -1119396.9    
       400   132.33545     -132.963        0             -132.84326     -1115895.7    
       410   886.60715     -133.34384      0             -132.54162     -1094834.9    
       420   24.59525      -133.20326      0             -133.18101     -1077155.8    
       430   186.34656     -133.35684      0             -133.18822     -1074147.8    
       440   100.7158      -134.24959      0             -134.15846     -1081607.7    
       450   42.744771     -134.52956      0             -134.49088     -1126094.5    
       460   311.66737     -134.78032      0             -134.49832     -1137866.8    
       470   50.231039     -134.86555      0             -134.8201      -1168602.1    
       480   23.179944     -134.9299       0             -134.90893     -1139654.2    
       490   137.89569     -134.9909       0             -134.86612     -1208198.5    
       500   2.9160845     -135.02126      0             -135.01862     -1171566.4    
       510   29.625846     -135.04466      0             -135.01786     -1167653.7    
       520   3.2251524     -134.96005      0             -134.95713     -1210235      
       530   5.6904878     -134.97163      0             -134.96648     -1197365.1    
       540   2.3507443     -134.99607      0             -134.99394     -1205601.7    
       550   2.6508311     -135.00027      0             -134.99787     -1200014.7    
       560   14.088226     -135.01125      0             -134.9985      -1198429.5    
       570   24.090441     -135.03592      0             -135.01413     -1216475.6    
       580   0.23696772    -135.04128      0             -135.04107     -1205805.2    
       590   2.4733549     -135.04341      0             -135.04117     -1210950.3    
       600   16.898444     -134.98821      0             -134.97292     -1204709.6    
       610   0.24088732    -134.99904      0             -134.99882     -1204406.9    
       620   3.6269819     -135.00197      0             -134.99869     -1203696.3    
       630   0.65653427    -134.97816      0             -134.97757     -1200786.9    
       640   0.8644672     -134.9793       0             -134.97852     -1200944.9    
       650   7.6298273     -134.98501      0             -134.97811     -1203768.5    
       660   0.75295171    -134.99026      0             -134.98958     -1204756      
       670   0.20087722    -134.99109      0             -134.9909      -1201038.1    
       680   1.2909207     -134.9921       0             -134.99093     -1202606.4    
       690   9.5239632     -134.99769      0             -134.98908     -1199000.7    
       700   0.4642767     -134.99872      0             -134.9983      -1202297.8    
       710   1.960606      -135.00014      0             -134.99836     -1204253.7    
       720   0.61926167    -135.00171      0             -135.00115     -1203411      
       730   2.1114722     -135.00405      0             -135.00214     -1202829.8    
       740   0.33041768    -135.00436      0             -135.00406     -1202423.7    
       750   2.5424794     -135.00593      0             -135.00363     -1203277      
       760   0.098659441   -135.00629      0             -135.0062      -1200870.5    
       770   0.6936251     -135.00681      0             -135.00618     -1201176.2    
       780   0.64676796    -134.99289      0             -134.9923      -1192196.8    
       790   0.00087776705 -134.99472      0             -134.99472     -1196541.2    
       800   0.086556457   -134.9948       0             -134.99473     -1197138.5    
       810   0.49944398    -134.99518      0             -134.99473     -1195867      
       820   0.73988609    -134.99603      0             -134.99536     -1196157.1    
       830   0.004004475   -134.99616      0             -134.99615     -1194599.2    
       840   0.068441119   -134.99621      0             -134.99615     -1195110.9    
       850   0.51853687    -134.99661      0             -134.99614     -1194926.1    
       860   0.1262824     -135.01264      0             -135.01253     -1196566      
       870   0.15396056    -135.01277      0             -135.01263     -1198254.5    
       880   0.00041615824 -135.01293      0             -135.01293     -1198109.9    
       890   0.044917507   -135.01297      0             -135.01293     -1197722.4    
       900   0.34366239    -135.01324      0             -135.01293     -1198176.2    
       910   3.1373818     -135.01381      0             -135.01097     -1196533.6    
       920   0.011257323   -135.01413      0             -135.01412     -1198326      
       930   0.050167727   -135.01417      0             -135.01412     -1199020      
       940   0.035421486   -135.01432      0             -135.01428     -1199221.1    
       950   0.022745168   -135.01435      0             -135.01433     -1198490.3    
       960   0.086363027   -135.01443      0             -135.01435     -1198095.7    
       970   0.00054169345 -135.01452      0             -135.01452     -1198386.4    
       980   0.025269113   -135.01454      0             -135.01452     -1198474      
       990   0.22116686    -135.01473      0             -135.01453     -1198171.7    
      1000   0.0048883759  -135.01487      0             -135.01486     -1198077.8    
      1010   0.044962651   -135.01489      0             -135.01485     -1197851.1    
      1020   0.00047795109 -135.01498      0             -135.01498     -1198154.5    
      1030   0.018078125   -135.015        0             -135.01499     -1197792.4    
      1040   0.0073896113  -135.015        0             -135.01499     -1197713.2    
      1050   0.0012406142  -135.01503      0             -135.01503     -1197544.4    
      1060   0.0038448731  -135.01506      0             -135.01505     -1197866.1    
      1070   0.01758936    -135.01507      0             -135.01506     -1197928.4    
      1080   7.4356409e-05 -135.01508      0             -135.01508     -1197859.6    
      1090   0.0043923435  -135.01508      0             -135.01508     -1197638.9    
      1100   0.029536344   -135.0151       0             -135.01507     -1197385.1    
      1110   0.013348015   -135.01514      0             -135.01512     -1197235.6    
      1120   0.00062170064 -135.01514      0             -135.01513     -1197635.4    
      1130   0.0052906681  -135.01514      0             -135.01514     -1197571.7    
      1140   0.032395805   -135.01516      0             -135.01513     -1197723.9    
      1150   0.01866728    -135.0152       0             -135.01518     -1197531.7    
      1160   0.00094424779 -135.01518      0             -135.01518     -1197429.2    
      1170   0.0052539964  -135.01519      0             -135.01518     -1197341.4    
      1180   0.0078319369  -135.01519      0             -135.01519     -1197484      
      1190   4.9387181e-05 -135.0152       0             -135.0152      -1197316      
      1200   0.00080476463 -135.01521      0             -135.01521     -1197375.3    
      1210   0.0060444561  -135.0152       0             -135.0152      -1197371.5    
      1220   1.3409201e-05 -135.01522      0             -135.01522     -1197240.7    
      1230   0.0012007075  -135.01522      0             -135.01522     -1197262.5    
      1240   0.0004388483  -135.01523      0             -135.01522     -1197185.9    
      1250   0.0003904815  -135.01522      0             -135.01522     -1197190.4    
      1260   0.002927761   -135.01521      0             -135.01521     -1197098.7    
      1270   9.7564554e-05 -135.01523      0             -135.01523     -1197208.6    
      1280   0.00095787672 -135.01523      0             -135.01523     -1197214.2    
      1290   0.001814398   -135.01522      0             -135.01522     -1197172.3    
      1300   5.0993592e-06 -135.01523      0             -135.01523     -1197175.2    
      1310   0.00013230819 -135.01523      0             -135.01523     -1197162.8    
      1320   0.0011464493  -135.01522      0             -135.01522     -1197149.1    
      1330   2.146187e-06  -135.01523      0             -135.01523     -1197139.4    
      1340   0.00021391323 -135.01523      0             -135.01523     -1197123.9    
      1350   0.00016631166 -135.01523      0             -135.01523     -1197183.7    
      1360   5.636085e-05  -135.01525      0             -135.01525     -1197112.7    
      1370   0.0005354258  -135.01522      0             -135.01522     -1197118      
      1380   8.7067118e-05 -135.01523      0             -135.01523     -1197107.1    
      1390   2.0467845e-05 -135.01524      0             -135.01524     -1197084.5    
      1400   0.00010654551 -135.01525      0             -135.01525     -1197089      
      1410   2.168911e-05  -135.01523      0             -135.01523     -1197048.8    
      1420   4.7601139e-05 -135.01524      0             -135.01524     -1197073.6    
      1430   1.9207121e-05 -135.01523      0             -135.01523     -1197077.4    
      1440   9.8741433e-05 -135.01524      0             -135.01524     -1197066.7    
      1450   0.00020126779 -135.01523      0             -135.01523     -1197063.8    
      1460   5.6591221e-07 -135.01522      0             -135.01522     -1197060.7    
      1470   1.5706858e-05 -135.01526      0             -135.01526     -1197070.3    
      1480   0.00010676306 -135.01522      0             -135.01522     -1197063.9    
      1490   2.6061042e-06 -135.01523      0             -135.01523     -1197078.8    
      1500   2.1123993e-06 -135.01522      0             -135.01522     -1197051.7    
      1510   1.4556635e-05 -135.01523      0             -135.01523     -1197062.8    
      1520   8.9440063e-05 -135.01524      0             -135.01524     -1197068.6    
      1530   3.0067831e-05 -135.01523      0             -135.01523     -1197068.7    
      1540   1.2729184e-06 -135.01523      0             -135.01523     -1197049.4    
      1550   1.4812129e-05 -135.01524      0             -135.01524     -1197050.3    
      1560   0.00010277179 -135.01524      0             -135.01524     -1197038.8    
      1570   6.1123563e-06 -135.01523      0             -135.01523     -1197039.2    
      1580   2.5141416e-06 -135.01523      0             -135.01523     -1197043.8    
      1590   1.3335309e-05 -135.01523      0             -135.01523     -1197042.9    
      1600   3.649418e-06  -135.01523      0             -135.01523     -1197042.6    
      1610   2.9289721e-06 -135.01522      0             -135.01522     -1197039.8    
      1620   2.3918769e-05 -135.01525      0             -135.01525     -1197040.6    
      1630   5.1070708e-07 -135.01524      0             -135.01524     -1197035.9    
      1640   6.7651365e-06 -135.01525      0             -135.01525     -1197035.6    
      1650   6.1018827e-06 -135.01524      0             -135.01524     -1197031.7    
      1660   4.5743365e-08 -135.01523      0             -135.01523     -1197033.3    
      1670   1.2052045e-06 -135.01524      0             -135.01524     -1197030.3    
      1680   8.7654379e-06 -135.01523      0             -135.01523     -1197029.3    
      1690   3.0024172e-07 -135.01523      0             -135.01523     -1197025.9    
      1700   1.0342771e-07 -135.01524      0             -135.01524     -1197029.8    
      1710   1.1874916e-06 -135.01524      0             -135.01524     -1197028.3    
      1720   8.6400847e-06 -135.01524      0             -135.01524     -1197026.8    
      1730   1.4854773e-07 -135.01525      0             -135.01525     -1197027      
      1740   1.8313058e-06 -135.01525      0             -135.01525     -1197027.3    
      1750   1.6975101e-05 -135.01523      0             -135.01523     -1197023.3    
      1760   5.6686415e-07 -135.01524      0             -135.01524     -1197025.8    
      1770   8.3479e-07    -135.01524      0             -135.01524     -1197025.1    
      1780   1.7490285e-07 -135.01524      0             -135.01524     -1197024.1    
      1790   1.8035618e-06 -135.01525      0             -135.01525     -1197023.9    
      1800   1.165061e-08  -135.01523      0             -135.01523     -1197021.4    
      1810   4.8099576e-07 -135.01523      0             -135.01523     -1197022.5    
      1820   1.810599e-07  -135.01523      0             -135.01523     -1197021.5    
      1830   1.1306742e-07 -135.01524      0             -135.01524     -1197022.4    
      1840   8.5105857e-07 -135.01524      0             -135.01524     -1197022.7    
      1850   1.0993125e-07 -135.01525      0             -135.01525     -1197022.4    
      1860   2.4739774e-08 -135.01524      0             -135.01524     -1197021      
      1870   1.4594112e-07 -135.01523      0             -135.01523     -1197021.5    
      1880   1.1229986e-06 -135.01525      0             -135.01525     -1197020.2    
      1890   2.9384711e-08 -135.01524      0             -135.01524     -1197020.8    
      1900   2.424991e-07  -135.01524      0             -135.01524     -1197021      
      1910   4.7855585e-10 -135.01523      0             -135.01523     -1197020.2    
      1920   6.8908692e-08 -135.01523      0             -135.01523     -1197020.3    
      1930   5.5108863e-07 -135.01523      0             -135.01523     -1197019.3    
      1940   2.3106505e-07 -135.01524      0             -135.01524     -1197020      
      1950   2.0087818e-08 -135.01523      0             -135.01523     -1197019.5    
      1960   1.0332256e-07 -135.01524      0             -135.01524     -1197019.7    
      1970   3.0952716e-08 -135.01524      0             -135.01524     -1197019.7    
      1980   2.8312721e-08 -135.01524      0             -135.01524     -1197019.3    
      1990   1.3547279e-08 -135.01524      0             -135.01524     -1197019.5    
      2000   9.4967702e-08 -135.01524      0             -135.01524     -1197019.4    
      2010   1.752588e-09  -135.01524      0             -135.01524     -1197019.2    
      2020   2.6020044e-08 -135.01522      0             -135.01522     -1197019.2    
      2030   1.911753e-07  -135.01523      0             -135.01523     -1197019.3    
      2040   5.0238451e-09 -135.01523      0             -135.01523     -1197019      
      2050   4.7115154e-10 -135.01523      0             -135.01523     -1197019      
      2060   1.7597178e-09 -135.01523      0             -135.01523     -1197018.8    
      2070   1.4076544e-08 -135.01523      0             -135.01523     -1197018.8    
      2080   1.7204242e-08 -135.01523      0             -135.01523     -1197018.7    
      2090   6.6377645e-11 -135.01523      0             -135.01523     -1197018.7    
      2100   2.1749887e-09 -135.01523      0             -135.01523     -1197018.8    
      2110   1.6516981e-08 -135.01523      0             -135.01523     -1197018.7    
      2120   2.3331966e-08 -135.01523      0             -135.01523     -1197018.5    
      2130   3.435257e-09  -135.01523      0             -135.01523     -1197018.7    
      2140   1.1687457e-11 -135.01523      0             -135.01523     -1197018.6    
      2150   1.082305e-09  -135.01523      0             -135.01523     -1197018.5    
      2160   7.60698e-09   -135.01523      0             -135.01523     -1197018.5    
      2170   1.6672927e-10 -135.01523      0             -135.01523     -1197018.3    
      2180   1.4041242e-10 -135.01523      0             -135.01523     -1197018.5    
      2190   1.0574056e-09 -135.01523      0             -135.01523     -1197018.4    
      2200   6.6354077e-09 -135.01525      0             -135.01525     -1197018.3    
      2210   1.9520874e-09 -135.01523      0             -135.01523     -1197018.4    
      2220   3.9835092e-11 -135.01523      0             -135.01523     -1197018.4    
      2230   7.5322277e-10 -135.01523      0             -135.01523     -1197018.4    
      2240   5.8411929e-09 -135.01524      0             -135.01524     -1197018.4    
      2250   6.462643e-10  -135.01524      0             -135.01524     -1197018.3    
      2260   9.291019e-11  -135.01524      0             -135.01524     -1197018.3    
      2270   1.0381921e-09 -135.01524      0             -135.01524     -1197018.3    
      2280   8.344586e-11  -135.01524      0             -135.01524     -1197018.2    
      2290   1.6522602e-10 -135.01524      0             -135.01524     -1197018.3    
      2300   1.6506724e-09 -135.01524      0             -135.01524     -1197018.2    
      2310   2.327449e-10  -135.01524      0             -135.01524     -1197018.3    
      2320   4.1289194e-11 -135.01524      0             -135.01524     -1197018.2    
      2330   3.2028814e-10 -135.01524      0             -135.01524     -1197018.2    
      2340   3.2490775e-11 -135.01524      0             -135.01524     -1197018.2    
      2350   5.332046e-11  -135.01524      0             -135.01524     -1197018.2    
      2360   2.5916879e-11 -135.01524      0             -135.01524     -1197018.2    
      2370   2.8569052e-11 -135.01524      0             -135.01524     -1197018.2    
      2380   1.506525e-10  -135.01524      0             -135.01524     -1197018.2    
      2390   2.1111329e-10 -135.01524      0             -135.01524     -1197018.2    
      2400   2.0017083e-12 -135.01524      0             -135.01524     -1197018.2    
      2410   2.5894673e-11 -135.01524      0             -135.01524     -1197018.2    
      2420   1.8312713e-10 -135.01524      0             -135.01524     -1197018.2    
      2422   2.592257e-10  -135.01524      0             -135.01524     -1197018.2    
Loop time of 14.9971 on 1 procs for 2422 steps with 8 atoms

99.8% CPU use with 1 MPI tasks x 1 OpenMP threads

Minimization stats:
  Stopping criterion = energy tolerance
  Energy initial, next-to-last, final = 
     -5.32849287316388  -135.015237589453  -135.015237589514
  Force two-norm initial, final = 57.139246 7.5014763e-06
  Force max component initial, final = 35.282921 4.0769247e-06
  Final line search alpha, max atom move = 0 0
  Iterations, force evaluations = 2422 2616

MPI task timing breakdown:
Section |  min time  |  avg time  |  max time  |%varavg| %total
---------------------------------------------------------------
Pair    | 14.96      | 14.96      | 14.96      |   0.0 | 99.75
Neigh   | 0.00023037 | 0.00023037 | 0.00023037 |   0.0 |  0.00
Comm    | 0.024418   | 0.024418   | 0.024418   |   0.0 |  0.16
Output  | 0.0024312  | 0.0024312  | 0.0024312  |   0.0 |  0.02
Modify  | 0          | 0          | 0          |   0.0 |  0.00
Other   |            | 0.01006    |            |       |  0.07

Nlocal:              8 ave           8 max           8 min
Histogram: 1 0 0 0 0 0 0 0 0 0
Nghost:           2197 ave        2197 max        2197 min
Histogram: 1 0 0 0 0 0 0 0 0 0
Neighs:             67 ave          67 max          67 min
Histogram: 1 0 0 0 0 0 0 0 0 0
FullNghs:         6674 ave        6674 max        6674 min
Histogram: 1 0 0 0 0 0 0 0 0 0

Total # of neighbors = 6674
Ave neighs/atom = 834.25
Neighbor list builds = 2
Dangerous builds = 0
write_data ./StructureDump/sample.5.dat 
System init for write_data ...
variable etot equal etotal
variable ptot equal press
variable pairp equal epair
variable numat equal atoms
run 0
WARNING: No fixes with time integration, atoms won't move (src/verlet.cpp:60)
Per MPI rank memory allocation (min/avg/max) = 3.991 | 3.991 | 3.991 Mbytes
   Step          Temp          E_pair         E_mol          TotEng         Press     
      2422   2.592257e-10  -135.01524      0             -135.01524     -818708.98    
Loop time of 3.8045e-05 on 1 procs for 0 steps with 8 atoms

86.7% CPU use with 1 MPI tasks x 1 OpenMP threads

MPI task timing breakdown:
Section |  min time  |  avg time  |  max time  |%varavg| %total
---------------------------------------------------------------
Pair    | 0          | 0          | 0          |   0.0 |  0.00
Neigh   | 0          | 0          | 0          |   0.0 |  0.00
Comm    | 0          | 0          | 0          |   0.0 |  0.00
Output  | 0          | 0          | 0          |   0.0 |  0.00
Modify  | 0          | 0          | 0          |   0.0 |  0.00
Other   |            | 3.804e-05  |            |       |100.00

Nlocal:              8 ave           8 max           8 min
Histogram: 1 0 0 0 0 0 0 0 0 0
Nghost:           2197 ave        2197 max        2197 min
Histogram: 1 0 0 0 0 0 0 0 0 0
Neighs:             67 ave          67 max          67 min
Histogram: 1 0 0 0 0 0 0 0 0 0
FullNghs:         6660 ave        6660 max        6660 min
Histogram: 1 0 0 0 0 0 0 0 0 0

Total # of neighbors = 6660
Ave neighs/atom = 832.5
Neighbor list builds = 0
Dangerous builds = 0
print "${etot} ${pairp} ${ptot} ${numat} " append Summary.dat screen no
Total wall time: 0:00:15
