mass 1 51.996100
pair_style hybrid/overlay soft 1.5 mliap model mliappy LATER descriptor ace coupling_coefficients.yace
Loading python model deferred.
pair_coeff * * soft 100.0
pair_coeff * * mliap   Cr

thermo 10
velocity all create 0.0001 4928459 dist gaussian
Loading python model complete.
min_style  fire
min_modify integrator eulerexplicit tmax 10.0 tmin 0.0 delaystep 5 dtgrow 1.1 dtshrink 0.5 alpha0 0.1 alphashrink 0.99 vdfmax 100000 halfstepback no initialdelay no
minimize 1e-12 1e-12 10000 100000
Neighbor list info ...
  update: every = 1 steps, delay = 0 steps, check = yes
  max neighbors/atom: 2000, page size: 100000
  master list distance cutoff = 13.209389
  ghost atom cutoff = 13.209389
  binsize = 6.6046944, bins = 1 1 1
  2 neighbor lists, perpetual/occasional/extra = 2 0 0
  (1) pair soft, perpetual, half/full trim from (2)
      attributes: half, newton on, cut 3.5
      pair build: halffull/trim/newton
      stencil: none
      bin: none
  (2) pair mliap, perpetual
      attributes: full, newton on
      pair build: full/bin/atomonly
      stencil: full/bin/3d
      bin: standard
  Parameters for fire:
    dmax  delaystep dtgrow dtshrink alpha0 alphashrink tmax tmin   integrator   halfstepback   abcfire  
     0.1      5      1.1     0.5     0.1      0.99      10   0   eulerexplicit       no          no     
Per MPI rank memory allocation (min/avg/max) = 3.992 | 3.992 | 3.992 Mbytes
   Step          Temp          E_pair         E_mol          TotEng         Press     
         0   0             -6.6741118      0             -6.6741118      8454.7754    
        10   100.35369     -6.8908839      0             -6.8000818      2183.7231    
        20   1307.7052     -7.9076815      0             -6.7244423     -13748.513    
        30   850.3175      -11.446724      0             -10.677338     -49294.006    
        40   4007.5539     -16.398596      0             -12.772477     -184822.76    
        50   1685.8568     -17.521073      0             -15.995674     -212207.71    
        60   10426.911     -24.128426      0             -14.693938     -14842.154    
        70   625.18329     -26.497557      0             -25.931878     -365938.2     
        80   2916.6951     -28.53795       0             -25.898862     -228592.24    
        90   5511.3977     -31.652387      0             -26.665558     -581133.26    
       100   3664.8238     -34.991599      0             -31.67559      -881819.39    
       110   1958.3003     -37.868307      0             -36.096395     -670030.14    
       120   125.01084     -40.724615      0             -40.611503     -587250.93    
       130   4690.1051     -44.390955      0             -40.14725      -714401.93    
       140   20403.105     -62.9096        0             -44.448442     -153464.81    
       150   4383.175      -65.890057      0             -61.924068     -435158.03    
       160   6533.6302     -80.341486      0             -74.42972      -50831.259    
       170   1938.6813     -86.639453      0             -84.885294     -475406.67    
       180   320.2967      -85.717864      0             -85.428052     -396695.71    
       190   203.57674     -91.012623      0             -90.828423     -577775.95    
       200   878.0811      -91.685655      0             -90.891149     -496579.52    
       210   673.6029      -94.473656      0             -93.864166     -757073.58    
       220   235.30963     -94.780072      0             -94.567159     -759510.72    
       230   945.99262     -95.386294      0             -94.53034      -730896.07    
       240   18.86893      -96.408176      0             -96.391103     -844825.8     
       250   319.82124     -96.691964      0             -96.402583     -849199.18    
       260   2635.2604     -98.672028      0             -96.287589     -930710.69    
       270   727.40574     -100.40425      0             -99.746081     -1007709.9    
       280   215.51086     -99.162518      0             -98.967519     -973252.53    
       290   1230.3479     -101.59702      0             -100.48377     -1009669      
       300   718.39657     -102.49604      0             -101.84602     -872741.51    
       310   868.85808     -105.98886      0             -105.2027      -1033716.9    
       320   204.14817     -106.14916      0             -105.96444     -1004190.3    
       330   913.65545     -106.86143      0             -106.03474     -1034850.3    
       340   657.45551     -104.51821      0             -103.92333     -816631.85    
       350   404.33744     -106.45532      0             -106.08946     -959135.89    
       360   4686.1487     -112.19107      0             -107.95095     -861128.07    
       370   262.81335     -112.84206      0             -112.60427     -1123256.1    
       380   44.818493     -113.03899      0             -112.99843     -970361.46    
       390   144.04427     -113.14871      0             -113.01838     -1065823.4    
       400   30.466031     -113.19391      0             -113.16635     -1099508.6    
       410   155.23987     -113.28384      0             -113.14338     -1178611.5    
       420   4.2976819     -113.31286      0             -113.30897     -1159809.3    
       430   17.512191     -113.32539      0             -113.30955     -1144385.6    
       440   0.053325207   -113.33488      0             -113.33483     -1146661.1    
       450   1.4940375     -113.33637      0             -113.33502     -1148219.2    
       460   0.7132258     -113.33896      0             -113.33831     -1147034.6    
       470   3.2553984     -113.3413       0             -113.33835     -1146394.4    
       480   0.048603915   -113.34449      0             -113.34444     -1146213.2    
       490   0.94493836    -113.34531      0             -113.34446     -1147358.2    
       500   7.6640746     -113.35081      0             -113.34387     -1147777.3    
       510   3.4123352     -113.35463      0             -113.35154     -1146217.3    
       520   1.5832255     -113.35592      0             -113.35448     -1147480.6    
       530   2.3472211     -113.36007      0             -113.35794     -1147418.4    
       540   0.6538316     -113.36059      0             -113.36        -1148035.7    
       550   6.3067164     -113.36564      0             -113.35993     -1149314.3    
       560   0.46240736    -113.37525      0             -113.37484     -1149114.5    
       570   0.31375778    -113.37622      0             -113.37594     -1150782.8    
       580   1.9312381     -113.37772      0             -113.37597     -1150563.3    
       590   0.41802519    -113.38448      0             -113.3841      -1153892.4    
       600   1.0519592     -113.38637      0             -113.38542     -1152434.7    
       610   5.8113176     -113.39015      0             -113.38489     -1152109.1    
       620   0.17450242    -113.39165      0             -113.39149     -1152675.3    
       630   1.7601672     -113.39308      0             -113.39149     -1153520.4    
       640   0.15799018    -113.40094      0             -113.4008      -1154043.1    
       650   0.59917572    -113.40202      0             -113.40148     -1154974.6    
       660   5.2989787     -113.40621      0             -113.40142     -1155933      
       670   0.13404293    -113.4122       0             -113.41208     -1156246.4    
       680   2.1701983     -113.414        0             -113.41203     -1157523.4    
       690   2.6330639     -113.41886      0             -113.41648     -1157890      
       700   0.9990476     -113.41945      0             -113.41854     -1158595      
       710   6.428842      -113.42403      0             -113.41821     -1158765.5    
       720   0.22359234    -113.42554      0             -113.42534     -1158590.5    
       730   1.9486282     -113.42713      0             -113.42537     -1159580      
       740   15.100249     -113.43304      0             -113.41938     -1157515.7    
       750   6.0597751     -113.43923      0             -113.43375     -1160921.7    
       760   0.39800228    -113.43955      0             -113.43919     -1161358.8    
       770   3.5530481     -113.44231      0             -113.43909     -1161456.7    
       780   0.35059353    -113.45756      0             -113.45724     -1165895      
       790   0.0060912113  -113.4592       0             -113.4592      -1165011.6    
       800   0.69254311    -113.45977      0             -113.45915     -1164414.4    
       810   5.8027947     -113.46436      0             -113.45911     -1165231.4    
       820   1.2378703     -113.47995      0             -113.47883     -1167782.5    
       830   1.4779305     -113.48334      0             -113.482       -1168331      
       840   15.211208     -113.48939      0             -113.47562     -1170894.9    
       850   0.42394907    -113.49142      0             -113.49103     -1169126      
       860   4.536418      -113.49503      0             -113.49093     -1169272      
       870   4.9834637     -113.50789      0             -113.50338     -1178282.2    
       880   0.07056221    -113.5175       0             -113.51743     -1173743      
       890   1.4779861     -113.51872      0             -113.51738     -1173155.3    
       900   12.617333     -113.52885      0             -113.51744     -1174538.2    
       910   0.24969892    -113.543        0             -113.54278     -1177824      
       920   5.0529372     -113.54711      0             -113.54254     -1178605.1    
       930   3.4266807     -113.55972      0             -113.55662     -1179015.8    
       940   1.9390431     -113.56142      0             -113.55966     -1181593.4    
       950   2.6134123     -113.56861      0             -113.56624     -1183898.2    
       960   0.73681353    -113.57127      0             -113.5706      -1181964.4    
       970   7.8467526     -113.57752      0             -113.57042     -1182401.9    
       980   11.227023     -113.59899      0             -113.58883     -1182641.5    
       990   3.0691487     -113.6015       0             -113.59872     -1185673.5    
      1000   3.135133      -113.60926      0             -113.60642     -1185093.6    
      1010   1.4492572     -113.61024      0             -113.60893     -1186432.1    
      1020   10.442992     -113.61769      0             -113.60824     -1187055.2    
      1030   0.50909191    -113.62011      0             -113.61965     -1185066.1    
      1040   3.3396987     -113.62278      0             -113.61975     -1187247.3    
      1050   1.9911592     -113.62977      0             -113.62797     -1187629.1    
      1060   0.90299704    -113.6306       0             -113.62978     -1187822.1    
      1070   7.9045018     -113.63691      0             -113.62975     -1187902.4    
      1080   1.5476656     -113.65785      0             -113.65645     -1190043.1    
      1090   2.569065      -113.66223      0             -113.65991     -1189564.7    
      1100   1.1762595     -113.66319      0             -113.66213     -1191690.1    
      1110   10.018835     -113.67076      0             -113.6617      -1193300.6    
      1120   1.2192461     -113.67931      0             -113.67821     -1197822.7    
      1130   0.15623986    -113.68255      0             -113.68241     -1192830.7    
      1140   2.0422951     -113.68417      0             -113.68232     -1193641.8    
      1150   16.742607     -113.69697      0             -113.68182     -1194051.4    
      1160   11.565111     -113.66712      0             -113.65666     -1213538.3    
      1170   0.6255271     -113.72757      0             -113.727       -1198503.8    
      1180   5.0959694     -113.73154      0             -113.72693     -1199114.6    
      1190   59.969405     -113.72658      0             -113.67231     -1199529.6    
      1200   0.39931851    -113.75692      0             -113.75656     -1205012.8    
      1210   0.05267956    -113.75934      0             -113.75929     -1201251.4    
      1220   0.88394984    -113.76004      0             -113.75925     -1202736.9    
      1230   6.1185487     -113.76486      0             -113.75933     -1202744.9    
      1240   0.064666942   -113.77322      0             -113.77316     -1206238.1    
      1250   0.08916434    -113.77436      0             -113.77428     -1202788.8    
      1260   1.0779524     -113.77529      0             -113.77431     -1204997.8    
      1270   7.657815      -113.78112      0             -113.77419     -1207340.5    
      1280   0.86517308    -113.78714      0             -113.78636     -1208283.2    
      1290   0.1889407     -113.7882       0             -113.78803     -1205323      
      1300   1.5991195     -113.7895       0             -113.78805     -1206588.8    
      1310   12.261817     -113.79838      0             -113.78728     -1205918.9    
      1320   0.34094066    -113.80635      0             -113.80605     -1208356.9    
      1330   3.7800729     -113.80945      0             -113.80603     -1207820.1    
      1340   0.030313653   -113.81618      0             -113.81615     -1211620.3    
      1350   1.4666254     -113.81746      0             -113.81613     -1209391.4    
      1360   2.7412512     -113.82183      0             -113.81935     -1209769      
      1370   0.50356681    -113.82253      0             -113.82208     -1210902.8    
      1380   5.0149547     -113.82641      0             -113.82188     -1211168.3    
      1390   0.037768388   -113.83579      0             -113.83576     -1214989.1    
      1400   1.9058573     -113.83727      0             -113.83555     -1213740.6    
      1410   1.2688886     -113.84002      0             -113.83887     -1215770.2    
      1420   0.62789206    -113.84057      0             -113.84        -1213431.7    
      1430   4.638593      -113.84343      0             -113.83923     -1212474.9    
      1440   0.33417884    -113.84446      0             -113.84415     -1215855.2    
      1450   1.6924404     -113.84567      0             -113.84414     -1215509      
      1460   0.86396772    -113.84802      0             -113.84724     -1216289.3    
      1470   0.4006448     -113.84835      0             -113.84799     -1215315.4    
      1480   3.5023285     -113.85103      0             -113.84786     -1215420.1    
      1490   0.24926981    -113.85431      0             -113.85408     -1214657.2    
      1500   0.096369352   -113.85504      0             -113.85495     -1217527      
      1510   0.65117349    -113.85557      0             -113.85498     -1216334.1    
      1520   4.7981453     -113.85916      0             -113.85482     -1216551.3    
      1530   0.20401845    -113.86037      0             -113.86018     -1217580.4    
      1540   1.4586481     -113.86149      0             -113.86017     -1217130.4    
      1550   9.0805078     -113.86574      0             -113.85752     -1219199.1    
      1560   0.50997859    -113.86616      0             -113.8657      -1218769.3    
      1570   5.021734      -113.86978      0             -113.86524     -1221501.2    
      1580   6.1734441     -113.8734       0             -113.86781     -1221461.7    
      1590   0.55398107    -113.87364      0             -113.87314     -1220980.8    
      1600   0.14200972    -113.87375      0             -113.87362     -1220885.1    
      1610   0.7984691     -113.87434      0             -113.87361     -1221084.8    
      1620   0.21621189    -113.87669      0             -113.8765      -1222306.9    
      1630   0.18838387    -113.87698      0             -113.87681     -1221734.4    
      1640   1.7272661     -113.87828      0             -113.87672     -1222421.6    
      1650   0.29403084    -113.87953      0             -113.87927     -1224681.8    
      1660   0.035363353   -113.88024      0             -113.8802      -1222167.4    
      1670   0.33347692    -113.88051      0             -113.88021     -1222707.3    
      1680   2.5233449     -113.8824       0             -113.88011     -1222489.1    
      1690   0.052166469   -113.88403      0             -113.88398     -1223317.2    
      1700   0.75435059    -113.88465      0             -113.88396     -1223166.8    
      1710   0.0061272532  -113.88596      0             -113.88596     -1224493.7    
      1720   0.26814249    -113.88619      0             -113.88595     -1223408      
      1730   0.43076657    -113.88698      0             -113.88659     -1223512.5    
      1740   0.084782038   -113.8871       0             -113.88702     -1224019.5    
      1750   0.8912671     -113.8878       0             -113.88699     -1224106.7    
      1760   0.0056835416  -113.88947      0             -113.88947     -1225376.2    
      1770   0.30308006    -113.88972      0             -113.88944     -1224853      
      1780   0.16002851    -113.89018      0             -113.89004     -1225504.8    
      1790   0.092891546   -113.89027      0             -113.89018     -1224813.3    
      1800   0.70889939    -113.89078      0             -113.89014     -1224522.6    
      1810   0.083649391   -113.89131      0             -113.89124     -1224760.6    
      1820   0.020599872   -113.89141      0             -113.89139     -1225712      
      1830   0.14460179    -113.89153      0             -113.8914      -1225368      
      1840   1.1100214     -113.89226      0             -113.89125     -1226456.4    
      1850   0.040559286   -113.89235      0             -113.89231     -1225790.7    
      1860   0.29797702    -113.89259      0             -113.89232     -1225549.1    
      1870   0.00075092566 -113.89325      0             -113.89325     -1226267      
      1880   0.10824876    -113.89334      0             -113.89324     -1226174.5    
      1890   0.9341568     -113.89407      0             -113.89323     -1227092.5    
      1900   0.38615618    -113.89451      0             -113.89416     -1226377.8    
      1910   0.041603013   -113.89454      0             -113.8945      -1226873.1    
      1920   0.2518308     -113.89474      0             -113.89451     -1226712.3    
      1930   0.018347729   -113.89489      0             -113.89487     -1228232.7    
      1940   0.0036992103  -113.89509      0             -113.89509     -1226844.5    
      1950   0.04280178    -113.89513      0             -113.89509     -1227067.6    
      1960   0.32379884    -113.89539      0             -113.8951      -1227258.8    
      1970   0.051872741   -113.89575      0             -113.89571     -1226484      
      1980   0.0077405282  -113.89583      0             -113.89583     -1227295.7    
      1990   0.07379741    -113.8959       0             -113.89583     -1227333.9    
      2000   0.65932226    -113.89627      0             -113.89568     -1227457.9    
      2010   0.0002245518  -113.89636      0             -113.89636     -1227315.8    
      2020   0.016845739   -113.89638      0             -113.89637     -1227603.3    
      2030   0.12546701    -113.89648      0             -113.89637     -1227683.4    
      2040   0.0083981387  -113.89658      0             -113.89657     -1228057.8    
      2050   0.0027571172  -113.8966       0             -113.8966      -1227540.3    
      2060   0.02139448    -113.89663      0             -113.89662     -1227768.7    
      2070   0.15328045    -113.89674      0             -113.8966      -1227967.8    
      2080   0.038210262   -113.89682      0             -113.89678     -1228085.2    
      2090   0.0066109606  -113.89682      0             -113.89682     -1227716.4    
      2100   0.031463605   -113.89685      0             -113.89683     -1227854.7    
      2110   0.0010126717  -113.89697      0             -113.89696     -1227783.7    
      2120   0.050930734   -113.897        0             -113.89695     -1227582.9    
      2130   0.0030956098  -113.89704      0             -113.89704     -1227897.9    
      2140   0.030370907   -113.89707      0             -113.89704     -1227930.3    
      2150   0.065474463   -113.89716      0             -113.8971      -1227674.9    
      2160   0.00013132636 -113.89717      0             -113.89717     -1228021.4    
      2170   0.0053433882  -113.89718      0             -113.89717     -1228105      
      2180   0.045357786   -113.89721      0             -113.89717     -1228108.8    
      2190   0.022817736   -113.89733      0             -113.89731     -1228159.7    
      2200   0.010769118   -113.89734      0             -113.89733     -1228259.7    
      2210   0.083892729   -113.89738      0             -113.89731     -1227831.2    
      2220   0.0038023088  -113.89741      0             -113.89741     -1228275.4    
      2230   0.039824401   -113.89745      0             -113.89741     -1228213.4    
      2240   0.0065517928  -113.89747      0             -113.89747     -1228189.5    
      2250   0.00073933352 -113.89749      0             -113.89749     -1228398.7    
      2260   0.0083704825  -113.89749      0             -113.89748     -1228379.2    
      2270   0.058413605   -113.89753      0             -113.89748     -1228587.1    
      2280   0.0019989778  -113.89756      0             -113.89756     -1228480.3    
      2290   0.018116071   -113.89758      0             -113.89756     -1228549.1    
      2300   0.0003856932  -113.8976       0             -113.8976      -1228475.8    
      2310   0.0077952698  -113.89761      0             -113.89761     -1228533.3    
      2320   0.0056012291  -113.89763      0             -113.89762     -1228478.6    
      2330   0.0025846665  -113.89762      0             -113.89762     -1228630.9    
      2340   0.019423506   -113.89764      0             -113.89762     -1228737.3    
      2350   0.00099857256 -113.89765      0             -113.89765     -1228552.6    
      2360   0.0061768507  -113.89764      0             -113.89763     -1228590.3    
      2370   0.0073202714  -113.89765      0             -113.89764     -1228245.9    
      2380   1.1585135e-05 -113.89767      0             -113.89767     -1228598.4    
      2390   0.0011909688  -113.89766      0             -113.89766     -1228657.2    
      2400   0.0075922476  -113.89768      0             -113.89767     -1228620.5    
      2410   0.010187822   -113.89769      0             -113.89768     -1228795.6    
      2420   6.5517025e-05 -113.89769      0             -113.89769     -1228660.1    
      2430   0.0012492102  -113.89769      0             -113.89769     -1228711.2    
      2440   0.010079624   -113.8977       0             -113.89769     -1228745      
      2450   3.929025e-05  -113.89771      0             -113.89771     -1228707.7    
      2460   0.0027790583  -113.89771      0             -113.89771     -1228758.4    
      2470   0.0065620821  -113.89772      0             -113.89772     -1228434.6    
      2480   0.001063858   -113.89774      0             -113.89774     -1228731.5    
      2490   0.0010262036  -113.89774      0             -113.89774     -1228798.5    
      2500   0.0039805489  -113.89774      0             -113.89774     -1228892.7    
      2510   0.00018559997 -113.89773      0             -113.89773     -1228849.8    
      2520   0.0014634858  -113.89774      0             -113.89774     -1228779.9    
      2530   0.0012297418  -113.89775      0             -113.89775     -1228784.2    
      2540   0.00054615615 -113.89775      0             -113.89775     -1228819.2    
      2550   0.0030730507  -113.89775      0             -113.89775     -1228868.9    
      2560   0.010884187   -113.89775      0             -113.89774     -1228696.2    
      2570   4.2812604e-05 -113.89775      0             -113.89775     -1228868.9    
      2580   0.0005739856  -113.89775      0             -113.89775     -1228839.4    
      2590   0.0044097079  -113.89776      0             -113.89776     -1228831.1    
      2600   0.00032071766 -113.89777      0             -113.89777     -1229027.8    
      2610   0.00012709087 -113.89776      0             -113.89776     -1228880.1    
      2620   0.00099708698 -113.89778      0             -113.89777     -1228894.7    
      2630   0.00030110683 -113.89778      0             -113.89778     -1228827.1    
      2640   0.00069842694 -113.89777      0             -113.89777     -1228895.9    
      2650   0.00017652829 -113.89777      0             -113.89777     -1228914      
      2660   0.0012798462  -113.89778      0             -113.89777     -1228902.4    
      2670   0.00027810562 -113.89777      0             -113.89777     -1229006.6    
      2680   0.00028276517 -113.89778      0             -113.89778     -1228962.4    
      2690   9.7276148e-05 -113.89778      0             -113.89778     -1228970.7    
      2700   3.1692369e-05 -113.89777      0             -113.89777     -1228993.7    
      2710   6.1773221e-05 -113.89779      0             -113.89779     -1228938.3    
      2720   0.0004169527  -113.89779      0             -113.89778     -1228964      
      2730   0.0035056204  -113.89778      0             -113.89777     -1228917.1    
      2740   0.00022809476 -113.89778      0             -113.89778     -1228968.2    
      2750   0.00081776373 -113.89779      0             -113.89779     -1229010.7    
      2760   1.9080611e-05 -113.89778      0             -113.89778     -1228986.4    
      2770   0.00027161184 -113.89779      0             -113.89779     -1228966.7    
      2780   0.0023923608  -113.89779      0             -113.89778     -1229010.8    
      2790   8.4684613e-05 -113.89779      0             -113.89779     -1228985.3    
      2800   0.000649178   -113.89778      0             -113.89778     -1228974.6    
      2810   3.6019178e-06 -113.89779      0             -113.89779     -1229012.3    
      2820   0.00020428927 -113.89779      0             -113.89779     -1228987.1    
      2830   0.00019938858 -113.89779      0             -113.89779     -1228990      
      2840   0.00010484089 -113.89779      0             -113.89779     -1229000.4    
      2850   0.00051854421 -113.8978       0             -113.8978      -1229023.9    
      2860   1.2610536e-05 -113.89779      0             -113.89779     -1229019.7    
      2870   0.00015344591 -113.89779      0             -113.89779     -1229001.8    
      2880   0.0014012157  -113.89779      0             -113.89779     -1229023.5    
      2890   0.00046860704 -113.89779      0             -113.89779     -1229009      
      2900   2.4696093e-05 -113.89779      0             -113.89779     -1229021.2    
      2910   0.00023397281 -113.89779      0             -113.89779     -1229024.5    
      2920   0.0017100621  -113.89779      0             -113.89779     -1229012      
      2930   4.4548355e-05 -113.8978       0             -113.8978      -1229030.2    
      2940   0.00049895395 -113.89779      0             -113.89779     -1229024.4    
      2950   5.444686e-05  -113.89779      0             -113.89779     -1229068.1    
      2960   1.6162856e-05 -113.8978       0             -113.8978      -1229043.3    
      2970   0.00013719403 -113.8978       0             -113.8978      -1229042.3    
      2980   0.0017391115  -113.89778      0             -113.89778     -1229072.8    
      2990   3.1259008e-05 -113.8978       0             -113.8978      -1229060.5    
      3000   4.6649865e-06 -113.8978       0             -113.8978      -1229070.3    
      3010   1.7092619e-05 -113.89779      0             -113.89779     -1229056      
      3020   0.00010293221 -113.89779      0             -113.89779     -1229052.2    
      3030   0.00018240309 -113.89779      0             -113.89779     -1229061.9    
      3040   8.2470821e-07 -113.89779      0             -113.89779     -1229057.7    
      3050   2.1359736e-05 -113.8978       0             -113.8978      -1229067.2    
      3060   0.00015036152 -113.8978       0             -113.8978      -1229067.3    
      3070   1.8063336e-06 -113.89779      0             -113.89779     -1229073.6    
      3080   4.0316097e-05 -113.8978       0             -113.8978      -1229066.2    
      3090   0.00034376041 -113.89779      0             -113.89779     -1229106.5    
      3100   1.0479429e-05 -113.89779      0             -113.89779     -1229074.2    
      3110   0.00013101044 -113.8978       0             -113.8978      -1229078.7    
      3120   1.0593786e-05 -113.8978       0             -113.8978      -1229057.3    
      3130   7.9777976e-06 -113.8978       0             -113.8978      -1229084.2    
      3140   3.6569907e-05 -113.89779      0             -113.89779     -1229082.6    
      3150   1.4170754e-05 -113.8978       0             -113.8978      -1229084.6    
      3160   0.00013836437 -113.89779      0             -113.89779     -1229092.4    
      3170   3.037089e-06  -113.89779      0             -113.89779     -1229083.8    
      3180   3.7669493e-05 -113.8978       0             -113.8978      -1229083.2    
      3190   3.4899466e-05 -113.8978       0             -113.8978      -1229111.9    
      3200   3.6294822e-07 -113.8978       0             -113.8978      -1229090.9    
      3210   8.1950722e-06 -113.8978       0             -113.8978      -1229088.5    
      3220   6.8180505e-05 -113.8978       0             -113.8978      -1229089.1    
      3230   9.5552185e-07 -113.8978       0             -113.8978      -1229094.4    
      3240   2.0076592e-05 -113.8978       0             -113.8978      -1229095.8    
      3250   1.0103422e-05 -113.89779      0             -113.89779     -1229092.1    
      3260   6.1974047e-06 -113.8978       0             -113.8978      -1229098.8    
      3270   5.8249134e-06 -113.8978       0             -113.8978      -1229102.5    
      3280   1.9810909e-06 -113.8978       0             -113.8978      -1229097      
      3290   2.2490034e-05 -113.89779      0             -113.89779     -1229097.3    
      3300   2.4980636e-05 -113.8978       0             -113.8978      -1229097.2    
      3310   6.2636407e-06 -113.8978       0             -113.8978      -1229102.1    
      3320   4.1659781e-06 -113.8978       0             -113.8978      -1229100.5    
      3330   2.3279123e-06 -113.8978       0             -113.8978      -1229101.8    
      3340   1.8269922e-05 -113.89779      0             -113.89779     -1229102.4    
      3350   9.9599292e-07 -113.89779      0             -113.89779     -1229106.8    
      3360   3.798628e-07  -113.8978       0             -113.8978      -1229101.2    
      3370   3.226521e-06  -113.89779      0             -113.89779     -1229103.7    
      3380   2.3560937e-05 -113.8978       0             -113.8978      -1229105.3    
      3390   8.058497e-07  -113.8978       0             -113.8978      -1229104.5    
      3400   7.0024938e-06 -113.8978       0             -113.8978      -1229105.9    
      3410   2.6827826e-05 -113.89779      0             -113.89779     -1229105.1    
      3420   2.2519902e-06 -113.8978       0             -113.8978      -1229105.7    
      3430   2.2752525e-05 -113.8978       0             -113.8978      -1229105.2    
      3440   8.6265528e-05 -113.8978       0             -113.8978      -1229131.1    
      3450   4.1373632e-06 -113.89779      0             -113.89779     -1229110      
      3460   5.5081387e-07 -113.8978       0             -113.8978      -1229108.9    
      3470   3.0654815e-06 -113.89779      0             -113.89779     -1229109.9    
      3480   5.4201108e-06 -113.8978       0             -113.8978      -1229113.7    
      3490   8.9038393e-09 -113.8978       0             -113.8978      -1229111.2    
      3500   7.0988748e-07 -113.8978       0             -113.8978      -1229109.4    
      3510   3.4965584e-06 -113.89779      0             -113.89779     -1229111.2    
      3520   1.2613748e-05 -113.8978       0             -113.8978      -1229106      
      3530   3.2320882e-08 -113.8978       0             -113.8978      -1229111.1    
      3540   5.7449842e-07 -113.89779      0             -113.89779     -1229110.5    
      3550   4.828199e-06  -113.89779      0             -113.89779     -1229110.6    
      3560   2.9693592e-05 -113.89779      0             -113.89779     -1229115.2    
      3570   5.9525295e-08 -113.89779      0             -113.89779     -1229112.7    
      3580   9.6763562e-07 -113.89779      0             -113.89779     -1229112.8    
      3590   7.4777314e-06 -113.8978       0             -113.8978      -1229112.6    
      3600   1.6082067e-05 -113.8978       0             -113.8978      -1229114.6    
      3610   1.9374846e-07 -113.89779      0             -113.89779     -1229113.9    
      3620   1.7064975e-06 -113.8978       0             -113.8978      -1229113.7    
      3630   7.8867628e-08 -113.8978       0             -113.8978      -1229113.9    
      3640   6.2989359e-07 -113.89779      0             -113.89779     -1229114.6    
      3650   3.6029481e-07 -113.8978       0             -113.8978      -1229114.3    
      3660   1.65575e-07   -113.8978       0             -113.8978      -1229115.2    
      3670   1.3061695e-06 -113.89779      0             -113.89779     -1229115.8    
      3680   2.4503829e-08 -113.8978       0             -113.8978      -1229115.5    
      3690   3.9370409e-07 -113.8978       0             -113.8978      -1229115.4    
      3700   2.4577038e-07 -113.8978       0             -113.8978      -1229116.4    
      3710   1.6163325e-07 -113.8978       0             -113.8978      -1229116.1    
      3720   1.1392979e-07 -113.8978       0             -113.8978      -1229115.3    
      3730   4.5006199e-07 -113.89779      0             -113.89779     -1229114.8    
      3740   1.3756712e-07 -113.8978       0             -113.8978      -1229115.2    
      3750   1.8449576e-07 -113.8978       0             -113.8978      -1229115.6    
      3760   7.4481157e-08 -113.8978       0             -113.8978      -1229116      
      3770   5.0044191e-07 -113.8978       0             -113.8978      -1229115.8    
      3780   2.9030422e-09 -113.8978       0             -113.8978      -1229116.7    
      3790   1.3485484e-07 -113.8978       0             -113.8978      -1229115.9    
      3800   6.1298286e-08 -113.8978       0             -113.8978      -1229116.1    
      3810   2.3180546e-08 -113.8978       0             -113.8978      -1229115.9    
      3820   3.089968e-07  -113.8978       0             -113.8978      -1229116.2    
      3830   2.070024e-09  -113.8978       0             -113.8978      -1229116.2    
      3840   8.7714686e-08 -113.8978       0             -113.8978      -1229117      
      3850   2.9972894e-08 -113.8978       0             -113.8978      -1229117.2    
      3860   2.7211832e-08 -113.8978       0             -113.8978      -1229116.7    
      3870   2.268492e-07  -113.8978       0             -113.8978      -1229116.6    
      3880   5.1407115e-07 -113.8978       0             -113.8978      -1229117      
      3890   1.4083685e-09 -113.8978       0             -113.8978      -1229116.9    
      3900   3.7459739e-08 -113.8978       0             -113.8978      -1229117.1    
      3910   3.3450239e-07 -113.8978       0             -113.8978      -1229117.2    
      3920   1.2692926e-06 -113.8978       0             -113.8978      -1229114      
      3930   4.9747258e-09 -113.8978       0             -113.8978      -1229117.5    
      3940   6.4092593e-08 -113.8978       0             -113.8978      -1229117.6    
      3950   9.4110235e-09 -113.8978       0             -113.8978      -1229117.3    
      3960   2.6232396e-08 -113.8978       0             -113.8978      -1229117.7    
      3970   1.6628207e-07 -113.8978       0             -113.8978      -1229117.9    
      3980   4.9342281e-09 -113.8978       0             -113.8978      -1229118      
      3990   4.9153614e-08 -113.89779      0             -113.89779     -1229117.8    
      4000   3.5764871e-09 -113.8978       0             -113.8978      -1229118.2    
      4010   1.3537434e-08 -113.8978       0             -113.8978      -1229118      
      4020   1.1825227e-07 -113.89779      0             -113.89779     -1229118      
      4030   2.6343618e-09 -113.8978       0             -113.8978      -1229118.3    
      4040   4.0418929e-08 -113.89779      0             -113.89779     -1229118      
      4050   4.7754824e-08 -113.89779      0             -113.89779     -1229118.2    
      4060   1.7045361e-08 -113.89779      0             -113.89779     -1229118.1    
      4070   1.0313549e-07 -113.8978       0             -113.8978      -1229118.3    
      4080   3.3681835e-09 -113.8978       0             -113.8978      -1229118.4    
      4090   2.7993508e-08 -113.8978       0             -113.8978      -1229118.2    
      4100   2.2002689e-07 -113.8978       0             -113.8978      -1229119.2    
      4110   8.529865e-08  -113.8978       0             -113.8978      -1229118.4    
      4120   4.5768236e-09 -113.89779      0             -113.89779     -1229118.4    
      4130   3.9099999e-08 -113.89779      0             -113.89779     -1229118.5    
      4140   2.4772306e-09 -113.8978       0             -113.8978      -1229118.3    
      4150   1.1696829e-08 -113.8978       0             -113.8978      -1229118.4    
      4160   7.2691882e-09 -113.8978       0             -113.8978      -1229118.6    
      4170   4.150264e-08  -113.8978       0             -113.8978      -1229118.5    
      4180   5.0542791e-10 -113.89779      0             -113.89779     -1229118.8    
      4190   7.1850028e-10 -113.89779      0             -113.89779     -1229118.5    
      4200   7.3910719e-09 -113.89779      0             -113.89779     -1229118.7    
      4207   2.8771389e-08 -113.89779      0             -113.89779     -1229118.5    
Loop time of 26.0161 on 1 procs for 4207 steps with 8 atoms

99.6% CPU use with 1 MPI tasks x 1 OpenMP threads

Minimization stats:
  Stopping criterion = energy tolerance
  Energy initial, next-to-last, final = 
     -6.67411184310913  -113.897793503971  -113.897793504065
  Force two-norm initial, final = 5.5714924 0.00011425531
  Force max component initial, final = 2.2258177 5.8550873e-05
  Final line search alpha, max atom move = 0 0
  Iterations, force evaluations = 4207 4546

MPI task timing breakdown:
Section |  min time  |  avg time  |  max time  |%varavg| %total
---------------------------------------------------------------
Pair    | 25.95      | 25.95      | 25.95      |   0.0 | 99.75
Neigh   | 0.00024164 | 0.00024164 | 0.00024164 |   0.0 |  0.00
Comm    | 0.043681   | 0.043681   | 0.043681   |   0.0 |  0.17
Output  | 0.0042601  | 0.0042601  | 0.0042601  |   0.0 |  0.02
Modify  | 0          | 0          | 0          |   0.0 |  0.00
Other   |            | 0.01778    |            |       |  0.07

Nlocal:              8 ave           8 max           8 min
Histogram: 1 0 0 0 0 0 0 0 0 0
Nghost:           2337 ave        2337 max        2337 min
Histogram: 1 0 0 0 0 0 0 0 0 0
Neighs:             67 ave          67 max          67 min
Histogram: 1 0 0 0 0 0 0 0 0 0
FullNghs:         6662 ave        6662 max        6662 min
Histogram: 1 0 0 0 0 0 0 0 0 0

Total # of neighbors = 6662
Ave neighs/atom = 832.75
Neighbor list builds = 2
Dangerous builds = 0
write_data ./StructureDump/sample.1.dat 
System init for write_data ...
variable etot equal etotal
variable ptot equal press
variable pairp equal epair
variable numat equal atoms
run 0
WARNING: No fixes with time integration, atoms won't move (src/verlet.cpp:60)
Per MPI rank memory allocation (min/avg/max) = 3.992 | 3.992 | 3.992 Mbytes
   Step          Temp          E_pair         E_mol          TotEng         Press     
      4207   2.8771389e-08 -113.89779      0             -113.89779     -1229118.5    
Loop time of 2.2024e-05 on 1 procs for 0 steps with 8 atoms

122.6% CPU use with 1 MPI tasks x 1 OpenMP threads

MPI task timing breakdown:
Section |  min time  |  avg time  |  max time  |%varavg| %total
---------------------------------------------------------------
Pair    | 0          | 0          | 0          |   0.0 |  0.00
Neigh   | 0          | 0          | 0          |   0.0 |  0.00
Comm    | 0          | 0          | 0          |   0.0 |  0.00
Output  | 0          | 0          | 0          |   0.0 |  0.00
Modify  | 0          | 0          | 0          |   0.0 |  0.00
Other   |            | 2.202e-05  |            |       |100.00

Nlocal:              8 ave           8 max           8 min
Histogram: 1 0 0 0 0 0 0 0 0 0
Nghost:           2337 ave        2337 max        2337 min
Histogram: 1 0 0 0 0 0 0 0 0 0
Neighs:             64 ave          64 max          64 min
Histogram: 1 0 0 0 0 0 0 0 0 0
FullNghs:         6650 ave        6650 max        6650 min
Histogram: 1 0 0 0 0 0 0 0 0 0

Total # of neighbors = 6650
Ave neighs/atom = 831.25
Neighbor list builds = 0
Dangerous builds = 0
print "${etot} ${pairp} ${ptot} ${numat} " append Summary.dat screen no
Total wall time: 0:00:26
