mass 1 51.996100
pair_style hybrid/overlay soft 1.5 mliap model mliappy LATER descriptor ace coupling_coefficients.yace
Loading python model deferred.
pair_coeff * * soft 100.0
pair_coeff * * mliap   Cr

thermo 10
velocity all create 0.0001 4928459 dist gaussian
Loading python model complete.
min_style  fire
min_modify integrator eulerexplicit tmax 10.0 tmin 0.0 delaystep 5 dtgrow 1.1 dtshrink 0.5 alpha0 0.1 alphashrink 0.99 vdfmax 100000 halfstepback no initialdelay no
minimize 1e-12 1e-12 10000 100000
Neighbor list info ...
  update: every = 1 steps, delay = 0 steps, check = yes
  max neighbors/atom: 2000, page size: 100000
  master list distance cutoff = 13.209389
  ghost atom cutoff = 13.209389
  binsize = 6.6046944, bins = 1 1 1
  2 neighbor lists, perpetual/occasional/extra = 2 0 0
  (1) pair soft, perpetual, half/full trim from (2)
      attributes: half, newton on, cut 3.5
      pair build: halffull/trim/newton
      stencil: none
      bin: none
  (2) pair mliap, perpetual
      attributes: full, newton on
      pair build: full/bin/atomonly
      stencil: full/bin/3d
      bin: standard
  Parameters for fire:
    dmax  delaystep dtgrow dtshrink alpha0 alphashrink tmax tmin   integrator   halfstepback   abcfire  
     0.1      5      1.1     0.5     0.1      0.99      10   0   eulerexplicit       no          no     
Per MPI rank memory allocation (min/avg/max) = 3.995 | 3.995 | 3.995 Mbytes
   Step          Temp          E_pair         E_mol          TotEng         Press     
         0   0             -6.692585       0             -6.692585       1692.5034    
        10   173.09434     -6.8335567      0             -6.6769373     -1384.8676    
        20   2599.6086     -10.055886      0             -7.7037058     -73988.244    
        30   128.21844     -18.804323      0             -18.688309     -367943.67    
        40   4395.6311     -22.258168      0             -18.280909     -188719.93    
        50   12846.204     -37.158972      0             -25.535457     -680688.28    
        60   5815.782      -42.222069      0             -36.959828     -179396.74    
        70   2245.9825     -42.859059      0             -40.826847     -485737.89    
        80   103.2782      -46.496277      0             -46.402829     -282839.66    
        90   164.3542      -47.641821      0             -47.49311      -303805.56    
       100   1463.6221     -50.659103      0             -49.334787     -414824.57    
       110   259.7189      -60.08027       0             -59.84527      -341120.84    
       120   496.23942     -61.621927      0             -61.172919     -410488.88    
       130   3690.0599     -64.335649      0             -60.996806     -466932.5     
       140   294.51432     -69.148918      0             -68.882435     -701823       
       150   3728.6695     -71.975083      0             -68.601304     -581312.19    
       160   8540.441      -78.767748      0             -71.040178     -780059.12    
       170   1340.4018     -79.874351      0             -78.661527     -584745.42    
       180   164.52491     -86.72536       0             -86.576494     -579347.04    
       190   477.41824     -88.036625      0             -87.604647     -809131.73    
       200   2259.2827     -89.693334      0             -87.649087     -957822.85    
       210   12.971311     -92.293793      0             -92.282057     -1106817.1    
       220   597.54732     -94.929292      0             -94.388619     -1093186.6    
       230   79.998811     -99.633235      0             -99.56085      -1162678.6    
       240   193.23085     -95.613043      0             -95.438204     -1127133.7    
       250   1359.7009     -96.65778       0             -95.427494     -1242880      
       260   2442.7112     -109.60342      0             -107.3932      -1709960.9    
       270   5.0468025     -106.47088      0             -106.46632     -1487059.8    
       280   2.5078362     -117.57038      0             -117.56811     -1708677.5    
       290   294.76985     -117.80334      0             -117.53663     -1627805      
       300   700.72121     -118.57321      0             -117.93919     -1470747.1    
       310   528.46265     -121.99212      0             -121.51396     -1480175.2    
       320   135.40768     -122.41368      0             -122.29116     -1650930.8    
       330   730.23372     -121.73285      0             -121.07212     -1544610.9    
       340   11.209355     -121.82995      0             -121.8198      -1531174.3    
       350   108.0314      -119.96275      0             -119.865       -1457527.9    
       360   65.252614     -122.06581      0             -122.00677     -1499930.2    
       370   18.95029      -122.08139      0             -122.06424     -1508458.6    
       380   105.67102     -122.15369      0             -122.05807     -1515893.2    
       390   2.154187      -122.16479      0             -122.16285     -1518491.8    
       400   19.497522     -122.18011      0             -122.16247     -1521833.8    
       410   7.5291521     -123.28292      0             -123.2761      -1590941.5    
       420   16.581348     -123.30847      0             -123.29347     -1580352.6    
       430   3.4860512     -123.31118      0             -123.30803     -1579548.5    
       440   10.389922     -123.31879      0             -123.30939     -1576533.4    
       450   0.053739156   -123.3255       0             -123.32545     -1576575.3    
       460   1.2393916     -123.32656      0             -123.32544     -1576169.8    
       470   6.6240591     -123.33161      0             -123.32562     -1573946.9    
       480   0.58432051    -123.3343       0             -123.33377     -1573320.4    
       490   0.078384744   -123.33456      0             -123.33449     -1573612.4    
       500   0.46169392    -123.33491      0             -123.33449     -1574063.5    
       510   2.1066156     -123.33579      0             -123.33388     -1576369.7    
       520   0.51159806    -123.33648      0             -123.33602     -1576207.6    
       530   0.060315542   -123.33649      0             -123.33644     -1576241.8    
       540   0.14763592    -123.33659      0             -123.33645     -1576444.8    
       550   0.030948974   -123.33671      0             -123.33668     -1576754      
       560   0.019300798   -123.33672      0             -123.3367      -1576776.7    
       570   0.11796235    -123.33681      0             -123.3367      -1577251.4    
       580   0.00085916237 -123.3369       0             -123.3369      -1577785.9    
       590   0.012806184   -123.3369       0             -123.33689     -1577867      
       600   0.0059341505  -123.33694      0             -123.33693     -1578054.8    
       610   0.0024238712  -123.33694      0             -123.33693     -1578080      
       620   0.01622719    -123.33695      0             -123.33694     -1578233.6    
       630   6.809194e-05  -123.33695      0             -123.33695     -1578428.6    
       640   0.0018254894  -123.33697      0             -123.33696     -1578448.2    
       650   0.0001448367  -123.33696      0             -123.33696     -1578604.9    
       660   0.00039448112 -123.33696      0             -123.33696     -1578607.5    
       670   0.0020515818  -123.33697      0             -123.33697     -1578644      
       680   8.5180528e-05 -123.33697      0             -123.33697     -1578655.7    
       690   0.00041328991 -123.33697      0             -123.33697     -1578667.6    
       700   0.0002587747  -123.33697      0             -123.33697     -1578689.3    
       710   7.9772651e-05 -123.33698      0             -123.33698     -1578691.8    
       720   0.00048108485 -123.33696      0             -123.33696     -1578705.3    
       730   2.3692048e-05 -123.33698      0             -123.33698     -1578734.9    
       740   3.282021e-06  -123.33696      0             -123.33696     -1578729.7    
       750   3.8079473e-05 -123.33698      0             -123.33698     -1578731.5    
       760   0.00025371022 -123.33697      0             -123.33697     -1578739.1    
       770   2.9587605e-05 -123.33697      0             -123.33697     -1578745.8    
       780   2.3375893e-06 -123.33698      0             -123.33698     -1578747.9    
       790   1.7600642e-05 -123.33697      0             -123.33697     -1578747.4    
       800   1.143483e-05  -123.33696      0             -123.33696     -1578745.7    
       810   1.4178081e-08 -123.33698      0             -123.33698     -1578745      
       820   1.730483e-06  -123.33698      0             -123.33698     -1578744.7    
       830   1.3218763e-05 -123.33698      0             -123.33698     -1578743.9    
       840   5.90269e-06   -123.33697      0             -123.33697     -1578739.8    
       850   1.3243351e-06 -123.33697      0             -123.33697     -1578739.7    
       860   2.0250056e-06 -123.33696      0             -123.33696     -1578738.2    
       870   5.1438078e-07 -123.33697      0             -123.33697     -1578738.4    
       880   3.6825977e-06 -123.33697      0             -123.33697     -1578737.7    
       890   4.963161e-07  -123.33696      0             -123.33696     -1578736.4    
       900   3.4785813e-07 -123.33696      0             -123.33696     -1578736.1    
       910   1.3796612e-07 -123.33697      0             -123.33697     -1578735.2    
       920   1.2304868e-07 -123.33696      0             -123.33696     -1578735.4    
       930   9.3489611e-07 -123.33696      0             -123.33696     -1578735      
       940   2.4740475e-09 -123.33697      0             -123.33697     -1578734.1    
       950   1.7881058e-07 -123.33698      0             -123.33698     -1578734.1    
       960   1.7900018e-06 -123.33697      0             -123.33697     -1578733.2    
       970   8.1813496e-08 -123.33697      0             -123.33697     -1578733.2    
       980   1.4098087e-08 -123.33697      0             -123.33697     -1578733.1    
       990   1.7174782e-07 -123.33697      0             -123.33697     -1578732.9    
      1000   5.0120696e-08 -123.33697      0             -123.33697     -1578732.7    
      1010   5.0620778e-08 -123.33697      0             -123.33697     -1578732.5    
      1020   1.6217128e-08 -123.33697      0             -123.33697     -1578732.5    
      1030   1.0419034e-07 -123.33699      0             -123.33699     -1578732.4    
      1040   6.3549977e-08 -123.33697      0             -123.33697     -1578732.1    
      1050   1.885948e-08  -123.33697      0             -123.33697     -1578732      
      1060   1.0833513e-09 -123.33697      0             -123.33697     -1578731.9    
      1070   5.1482312e-08 -123.33697      0             -123.33697     -1578731.8    
      1080   2.2105068e-08 -123.33697      0             -123.33697     -1578731.7    
      1090   5.8228926e-11 -123.33697      0             -123.33697     -1578731.7    
      1100   6.2827861e-09 -123.33697      0             -123.33697     -1578731.7    
      1110   4.6982858e-08 -123.33697      0             -123.33697     -1578731.6    
      1120   5.1461851e-10 -123.33697      0             -123.33697     -1578731.4    
      1130   4.2978957e-10 -123.33697      0             -123.33697     -1578731.4    
      1140   4.6926868e-09 -123.33697      0             -123.33697     -1578731.4    
      1150   3.0983912e-08 -123.33697      0             -123.33697     -1578731.3    
      1160   4.3102759e-09 -123.33697      0             -123.33697     -1578731.2    
      1170   8.098395e-10  -123.33697      0             -123.33697     -1578731.1    
      1180   3.690779e-09  -123.33697      0             -123.33697     -1578731.1    
      1190   3.0105908e-08 -123.33697      0             -123.33697     -1578731      
      1200   1.1525531e-08 -123.33697      0             -123.33697     -1578731      
      1210   2.8211596e-10 -123.33697      0             -123.33697     -1578731      
      1220   2.6109595e-09 -123.33697      0             -123.33697     -1578731      
      1230   1.5623028e-08 -123.33697      0             -123.33697     -1578730.9    
      1240   4.5129472e-10 -123.33697      0             -123.33697     -1578730.9    
      1250   1.650502e-10  -123.33697      0             -123.33697     -1578730.9    
      1260   1.1193961e-09 -123.33697      0             -123.33697     -1578730.8    
      1270   3.7312639e-10 -123.33697      0             -123.33697     -1578730.8    
      1280   1.8647763e-10 -123.33697      0             -123.33697     -1578730.8    
      1290   1.1537105e-10 -123.33697      0             -123.33697     -1578730.8    
      1300   7.9220142e-10 -123.33697      0             -123.33697     -1578730.8    
      1310   4.6744888e-12 -123.33697      0             -123.33697     -1578730.8    
      1320   1.5485697e-10 -123.33697      0             -123.33697     -1578730.8    
      1330   1.0082698e-10 -123.33697      0             -123.33697     -1578730.8    
      1340   5.0330494e-11 -123.33697      0             -123.33697     -1578730.8    
      1350   2.8241661e-10 -123.33697      0             -123.33697     -1578730.8    
      1360   4.6323995e-11 -123.33697      0             -123.33697     -1578730.7    
      1370   3.1839069e-11 -123.33697      0             -123.33697     -1578730.7    
      1373   4.9269998e-11 -123.33697      0             -123.33697     -1578730.7    
Loop time of 8.55565 on 1 procs for 1373 steps with 8 atoms

100.1% CPU use with 1 MPI tasks x 1 OpenMP threads

Minimization stats:
  Stopping criterion = energy tolerance
  Energy initial, next-to-last, final = 
     -6.69258499145508  -123.336966576708  -123.336966576597
  Force two-norm initial, final = 7.3337307 7.3484999e-06
  Force max component initial, final = 3.7728998 3.9414816e-06
  Final line search alpha, max atom move = 0 0
  Iterations, force evaluations = 1373 1482

MPI task timing breakdown:
Section |  min time  |  avg time  |  max time  |%varavg| %total
---------------------------------------------------------------
Pair    | 8.5338     | 8.5338     | 8.5338     |   0.0 | 99.74
Neigh   | 0.00025259 | 0.00025259 | 0.00025259 |   0.0 |  0.00
Comm    | 0.014289   | 0.014289   | 0.014289   |   0.0 |  0.17
Output  | 0.001396   | 0.001396   | 0.001396   |   0.0 |  0.02
Modify  | 0          | 0          | 0          |   0.0 |  0.00
Other   |            | 0.005882   |            |       |  0.07

Nlocal:              8 ave           8 max           8 min
Histogram: 1 0 0 0 0 0 0 0 0 0
Nghost:           2292 ave        2292 max        2292 min
Histogram: 1 0 0 0 0 0 0 0 0 0
Neighs:             66 ave          66 max          66 min
Histogram: 1 0 0 0 0 0 0 0 0 0
FullNghs:         6646 ave        6646 max        6646 min
Histogram: 1 0 0 0 0 0 0 0 0 0

Total # of neighbors = 6646
Ave neighs/atom = 830.75
Neighbor list builds = 2
Dangerous builds = 0
write_data ./StructureDump/sample.3.dat 
System init for write_data ...
variable etot equal etotal
variable ptot equal press
variable pairp equal epair
variable numat equal atoms
run 0
WARNING: No fixes with time integration, atoms won't move (src/verlet.cpp:60)
Per MPI rank memory allocation (min/avg/max) = 3.995 | 3.995 | 3.995 Mbytes
   Step          Temp          E_pair         E_mol          TotEng         Press     
      1373   4.9269998e-11 -123.33697      0             -123.33697     -1423488.2    
Loop time of 2.3476e-05 on 1 procs for 0 steps with 8 atoms

76.7% CPU use with 1 MPI tasks x 1 OpenMP threads

MPI task timing breakdown:
Section |  min time  |  avg time  |  max time  |%varavg| %total
---------------------------------------------------------------
Pair    | 0          | 0          | 0          |   0.0 |  0.00
Neigh   | 0          | 0          | 0          |   0.0 |  0.00
Comm    | 0          | 0          | 0          |   0.0 |  0.00
Output  | 0          | 0          | 0          |   0.0 |  0.00
Modify  | 0          | 0          | 0          |   0.0 |  0.00
Other   |            | 2.348e-05  |            |       |100.00

Nlocal:              8 ave           8 max           8 min
Histogram: 1 0 0 0 0 0 0 0 0 0
Nghost:           2352 ave        2352 max        2352 min
Histogram: 1 0 0 0 0 0 0 0 0 0
Neighs:             67 ave          67 max          67 min
Histogram: 1 0 0 0 0 0 0 0 0 0
FullNghs:         6652 ave        6652 max        6652 min
Histogram: 1 0 0 0 0 0 0 0 0 0

Total # of neighbors = 6652
Ave neighs/atom = 831.5
Neighbor list builds = 0
Dangerous builds = 0
print "${etot} ${pairp} ${ptot} ${numat} " append Summary.dat screen no
Total wall time: 0:00:08
