LAMMPS data file via write_data, version 7 Feb 2024, timestep = 71, units = metal

58 atoms
3 atom types

0 2.2858575148342073 xlo xhi
0 6.857572544502622 ylo yhi
0 25.144432663176282 zlo zhi
0 4.571715029668415 11.429287574171036 xy xz yz

Masses

1 55.845
2 28.085
3 51.9961

Atoms # atomic

5 3 2.8153295703990096 5.923036899084027 7.341059741620915 0 0 0
15 3 2.6158812067825234 6.632428454550232 3.116902631253085 0 0 0
18 3 2.613189096128489 1.4460377046500728 2.0596402769571722 -1 0 0
20 3 2.6402637259729413 3.1674879862015186 3.466145920223181 0 0 0
21 3 1.6423203909882855 7.606921180766857 6.84961210834556 1 0 0
25 3 2.6782906250855243 8.895707692458256 5.5481915063688385 0 0 0
27 3 1.512423968284804 8.309646118796 3.8286195598770494 1 0 0
30 1 1.5986230528826058 5.571212590930083 5.846038239015058 0 0 0
33 1 2.8556273224038415 9.267996817213527 7.499978782102496 0 0 0
36 1 1.7241405003959775 4.130192602689218 7.272837634198439 1 1 0
39 1 0.3091542632687954 4.805200481464079 0.9114734030963756 0 0 0
40 1 1.504380509989662 3.6077088648603235 5.244079414543542 0 1 0
42 1 1.4691375755208824 3.1425062168842377 1.7081861950970736 0 0 0
44 1 1.4895290409241766 4.87716149474411 2.6533167563139695 1 0 0
54 1 2.679051954435773 5.0545699521185465 4.305000653015364 0 0 0
57 1 1.4496655969134231 6.565950515898644 1.3793819928453512 0 0 0
58 1 2.746533119602325 7.044097193959361 5.095039317705768 0 0 0
2 2 2.8871749687929733 10.794714526465352 9.000327748993694 0 0 0
37 1 1.733842218946428 9.08605353346676 9.223994536848595 1 0 0
1 2 2.9518789121867854 6.333366900123982 10.401853754631942 0 1 0
10 3 4.11962566910964 9.440946949616713 12.571871207052045 0 1 0
11 3 1.728564955280454 5.65865214614564 8.880999211255952 1 1 0
12 3 4.113283012306303 7.964214664342938 10.969665411468892 0 0 0
14 3 3.000897230653659 7.7038631581512025 12.76780816925694 1 1 0
22 3 4.082641421070722 11.423421586695651 10.635126848175624 0 0 0
23 3 4.168325748587199 7.370344389053795 14.610687505827162 1 1 0
47 1 4.144197159076809 6.097231979691701 12.058008273736924 0 1 0
53 1 2.837723426706104 7.472865943170774 8.686093487636198 0 0 0
8 3 2.82268688711181 12.239572218844597 15.430950743044693 1 0 0
13 3 4.108420586578508 10.911704031811166 14.159322340787204 1 1 0
24 3 3.9596802476494064 13.492950196491012 16.498522957396673 1 0 0
31 1 2.94091190884243 9.701325465181426 10.842502498887992 1 0 0
38 1 2.9307438246910897 10.273260350321156 15.867399042292323 2 1 0
45 1 2.9684754846049968 11.175689121081408 12.365525962376077 1 0 0
46 1 3.056528947036143 12.693145248413902 13.705298270671936 0 0 0
51 1 3.0067643005784648 9.10261867837142 14.31286821375959 1 1 0
50 1 5.187844068019844 8.285792116838495 16.297356415223547 0 1 0
3 2 6.0676777030962405 14.112516167819066 22.041923066376313 1 1 0
4 3 4.884434725549838 15.34767617035104 23.263106681191843 1 1 0
6 3 4.092476399808939 9.58681316988065 17.477476561479417 1 1 0
7 3 4.017164422788747 11.571941189022505 17.018919704559842 1 1 0
9 3 5.365375988187875 15.741703243243162 21.230591108928863 1 0 0
16 3 5.123784187470317 12.900689974732874 18.17733194750803 0 1 0
17 3 5.212485415762939 10.939627986703186 18.57682785107284 0 1 0
19 3 5.736540177677809 10.980443389201277 21.279059692703736 1 1 0
26 3 4.846837559671467 11.499200009971428 24.83987403659892 1 1 0
28 1 6.022499646908379 14.844231811050816 24.90365747598663 0 1 0
29 1 5.9664322726572525 16.768926702573793 24.395435028944597 1 1 0
32 1 5.958983472888285 11.873058265949336 23.172181593756946 1 1 0
34 1 1.440621172973344 1.5732516717767249 0.3538372514840027 1 1 1
35 1 4.072032668580142 14.525018384655016 18.111519648300803 1 0 0
41 1 4.263008466175047 10.163013987987508 20.013876545559185 1 1 0
43 1 4.831940732873967 12.573363408334634 21.547692514920264 1 1 0
48 1 3.918170732845792 12.266341266893452 19.76727403300652 1 1 0
49 1 4.871864469343577 13.431430238815285 23.769252574072937 1 1 0
52 1 4.989749835913097 14.022053878835816 20.053608237371204 1 1 0
55 1 5.309478485370807 8.886777979198202 19.10381661736786 1 1 0
56 1 4.698042930336783 17.091391469571352 22.696512890383737 1 0 0

Velocities

5 -0.0016762809984576799 0.001057440025715283 0.0028411147159181846
15 0.0005665158479388076 0.0009660603244238939 -0.0001837277525819949
18 0.0006772180230682693 -0.0011874938297362406 0.00240746138360573
20 -0.00047887116761714663 -0.001201622226034925 -0.001851233933738754
21 -0.0010707740859293444 -0.0012903205807878646 0.0016786225901406727
25 0.0017155938323380007 -0.0011774534931981574 0.001049658837643931
27 0.0009063899884190036 -0.0010079066819405566 0.002132194711097263
30 -0.0012102919618477276 -0.00038752021067870054 -0.0011105864577728196
33 -0.000341456604207132 0.00038195500872257985 0.00022182380903631345
36 -0.0007730208136231152 -0.0008551697338135641 0.0005300992436510015
39 0.0015264395123656628 0.0012213669722454354 0.0016190926056583827
40 -0.0026472243634840863 0.0003408028765215832 -0.0009230522810821141
42 -8.869421355332093e-06 1.0264480753909364e-05 0.0008798296592677068
44 -0.00020116923077030666 0.0013962208481178918 -0.00013403547604788607
54 0.0003911200682135921 -0.00015401129773550944 0.0015487604631427654
57 0.0006123217330214002 -0.0007391038946048412 -0.0004518346550049618
58 0.0002776015514203083 -0.0008548123450876703 0.0007291488573813796
2 0.0020575658507460226 -0.004331788765721435 -0.0004400057256532061
37 -0.0005196896257885613 0.0020916637599745847 -0.0002582953638051818
1 0.0037941538798706123 0.0029160084932751693 -0.0006744277252751017
10 -0.0007180004909413437 -0.00021483396928226837 0.000291380655892574
11 0.0003981118255669647 0.0005429885244010213 0.0010273135542170516
12 -0.00015209532593114477 0.0006364813043587427 -0.0011149665448168347
14 0.0021121806366566813 0.0008656239491485777 0.0007696400862756749
22 -0.00045711051368327316 0.0014668859066654953 -0.0008791796620270992
23 -0.0013200969548589482 -0.0007741179090717498 0.00022583212252933873
47 -0.000664594035966161 0.0015799173674076435 0.00024010786449331367
53 -0.0007329642335232596 0.002241829157026871 -0.00012349947815216812
8 0.00014487632401963976 -0.0004797103673625549 -0.0003825712745991182
13 -0.0005150270815837685 -0.0012287942499886381 -0.002505442755756302
24 0.0019874203646670363 -0.0010902116978621168 0.00044288159980914826
31 0.0016870222240097565 0.002881213434006045 0.0019069526571985716
38 -0.0014112709165696746 -0.0022750159261059723 -0.0015273940255168584
45 0.0008897823529890865 0.0004347478951207288 -0.0013092143691278118
46 0.0007568229216841173 -0.0013310021516271678 0.0019939769080863615
51 -9.537630458300747e-05 1.637840504521677e-05 0.00020710257280145928
50 -0.0012435927882253435 0.0017340471375435354 -0.0003423291050837182
3 0.0016505523114359977 7.129809905216467e-06 0.004671961426644134
4 -0.00033824490451852147 -0.0011393507669322281 -0.001413980548472913
6 -0.00025249336881021166 -0.0007754748459763274 -0.0007915697098094351
7 -0.0014100995407879146 -0.0008826506919107864 -0.0016815700726344794
9 0.00022071585599818031 0.0002468066094770745 0.00083813210299452
16 -0.0010433607534029881 -0.001098654262163456 0.0001919743121741576
17 0.000767051797162322 0.0005017363154228366 0.0005449725844163632
19 0.001118748807470111 0.001177695858637094 0.0006982030433886202
26 -0.0001547073914549948 -0.0016132032890666362 -0.0013630082045405746
28 -0.0023151225213724506 -0.0007141877580104238 -0.0019750155261662795
29 -2.8547192332093312e-05 -0.0007423332985495759 0.0008107076534332404
32 -0.0005854535323429414 -0.0020110195056670392 0.0011592595344309244
34 -9.295378256982067e-05 0.0018062306079554042 -0.001772515643390126
35 -0.0007489901994836837 0.0007864129818567493 0.00051591940313114
41 0.00010163835505540995 -0.0012319913241219437 0.0001795047523321007
43 -0.0005984391379513533 -0.001391254095730425 -0.00015432372383604464
48 0.0009002192261318417 0.0015847136552932374 -0.0015154482996738725
49 -0.00019183649863864402 0.0015853367819327925 -0.0013051438398648662
52 0.00027775244408226557 -0.00031188223172785 -0.0006354643242536928
55 0.002421933116586482 -0.00011331408964505721 -0.0022631720271251918
56 -0.00016158996741392286 0.0008973225669569707 -0.0012973663952560441
