LAMMPS data file via write_data, version 7 Feb 2024, timestep = 46, units = metal

67 atoms
3 atom types

0 2.2858575148342073 xlo xhi
0 2.2858575148342073 ylo yhi
0 77.71915550436304 zlo zhi
0 52.57472284118677 16.001002603839453 xy xz yz

Masses

1 55.845
2 28.085
3 51.9961

Atoms # atomic

9 3 4.164354713029059 3.0869576807840593 4.120768854404348 0 -1 0
10 3 2.2721453480548255 0.6075439155993064 1.8933107299937342 0 0 0
29 3 5.086508676781486 1.9705893927933276 5.235024739673979 0 0 0
30 3 3.222633003882933 1.865350598712583 2.9866614770721878 0 0 0
42 1 1.2981124763679963 1.5958615966721605 0.8166261783435563 0 0 0
47 1 52.853076617340356 16.29430092421726 77.44208094056972 0 0 -1
55 1 6.016884863902429 3.0925410693761606 6.293861657927778 0 0 0
15 3 6.698912537369389 3.9801228826942805 9.524585452932545 1 0 0
4 2 7.950309600361713 2.9278324023712603 8.444124770310722 0 0 0
12 3 8.96657449991494 3.9565993051571207 11.732164518633137 1 0 0
58 1 7.79631549291444 2.794899752515838 10.62812462883458 1 1 0
67 1 6.964548315169215 1.8798077171181995 7.370549747747493 0 0 0
20 3 11.466333478559072 4.105128190356294 13.911951756745593 0 0 0
24 3 10.201268828322565 2.8833807487991088 12.847405201055134 0 1 0
26 3 13.717235104405287 3.966468243787853 18.471407736035086 0 1 0
44 1 10.41409729255086 5.286500229182069 15.010702242940356 0 -1 0
51 1 12.673155607733579 5.1883554999028565 17.297886510911464 0 0 0
56 1 11.583010818339575 4.115375301619784 16.12745723261446 0 0 0
63 1 14.726112953802911 5.05635520892948 19.6575147459579 0 1 0
2 2 16.41486129365679 5.115007938165065 22.193146492406836 0 1 0
23 3 17.38913870404328 6.316134048296798 23.385332766239443 0 0 0
27 3 15.69012471067718 6.192512131541475 20.860951385165396 0 0 0
34 3 18.414877620259368 5.249264471975009 24.528389655687377 0 1 0
5 2 20.514293809246688 7.802566921074936 28.83087336352189 1 0 0
39 1 19.473997914976724 6.482817345097203 25.585789082349944 0 1 0
57 1 18.273382984398353 7.7252099103813965 26.677847632728064 1 0 0
6 3 21.628487537612063 6.654630750980284 29.90718016798654 0 0 0
41 1 23.81493965693831 6.67910695941083 32.03527583438094 0 1 0
48 1 22.72437155199966 7.783533387078756 30.968892014405313 0 0 0
62 1 19.384678668937177 6.6319480363989385 27.75145366928937 1 0 0
1 2 26.04001263623088 9.25917485805408 36.28584212057246 0 0 0
25 3 23.76286027126591 9.239360083779717 34.11523129427561 1 0 0
46 1 24.91061375075207 8.192463716071096 35.19021034212516 0 0 0
53 1 22.63324804061717 7.934109804966395 33.069255863579976 1 1 0
33 3 27.13145318519351 7.911439246544862 37.40070877779994 0 1 0
35 1 28.19533680351658 8.95840821322454 38.52775098742345 0 0 0
61 1 27.97667491307804 9.099923124301068 40.772481297883935 1 1 0
60 1 26.950505808402173 10.143699777019213 39.6349522756039 1 0 0
19 3 30.050843650287067 9.302523933122435 43.18297437578718 1 0 0
45 1 31.11954928012201 10.53761900616421 44.4399763487669 1 1 0
64 1 29.006850023234282 10.346618878799362 41.9507920599577 1 0 0
3 2 32.2138808193679 9.482803374627247 45.70484686980303 1 1 0
43 1 35.574138191194244 10.77061031307779 49.67950525311923 0 1 0
59 1 34.45866901453651 11.904164848127575 48.32552142886629 0 0 0
66 1 33.329334156925526 10.703846367566797 46.99936963701684 0 1 0
13 3 36.67802808532202 11.87440459130296 51.04415646932555 0 0 0
16 3 35.474102069883145 12.924828525625262 52.40625819836553 1 0 0
31 3 36.534677236908344 11.658774039280207 53.76388405352465 1 1 0
38 1 37.604569631761564 12.73369840131804 55.08437571079564 1 1 0
52 1 38.67969654030774 13.85027963096732 56.369933368512086 1 0 0
11 3 39.74730706755979 12.715636515586974 57.56722676448326 1 1 0
32 3 40.81048111987227 13.89234152711802 58.69809151331589 1 1 0
14 3 41.87456841396954 12.80000878088768 59.812156551914306 1 1 0
18 3 44.19019759796155 15.29160128760677 64.33336087499141 1 0 0
22 3 42.96346817383955 14.01573760603461 60.947937046054285 1 1 0
28 3 44.09897788059298 12.954453095557891 62.08410691956998 1 1 0
37 1 42.98623183511997 14.141144183026357 63.21233743995916 1 1 0
7 3 46.651239117638234 15.16610677680149 66.52889803601713 0 1 0
8 3 46.85293139477377 14.952818897441208 68.85926439761208 1 1 0
21 3 45.415310909845246 14.105277410873157 65.41628538633594 1 1 0
40 1 48.10392759437003 16.00826474120598 70.06700872448856 1 1 0
50 1 47.89187227230689 16.20544326781905 67.6676557127803 0 1 0
36 1 49.35070729193248 14.811640569923142 71.28338736140074 1 1 0
17 3 51.78361815836772 17.132422617758525 73.78671730608933 1 1 0
49 1 50.58075062935997 15.948406754309458 72.525595970911 1 1 0
54 1 52.94871512653141 16.05595057402946 75.03985901214521 1 2 0
65 1 51.782378231935 17.301441399082098 76.26651113045767 1 1 0

Velocities

9 0.00016065674670412636 0.00017464544040451046 0.0009216336190612445
10 -0.0007477700640914631 -0.00027209939371224037 0.00039252418679448905
29 -8.521962336381238e-05 -0.0008137994489034589 0.000921959016451278
30 -0.0012704042614839648 -0.0004579535573063276 -0.0010049276723262423
42 -6.152050842926967e-05 -5.4264189554909245e-05 0.0009619857213621337
47 -0.0006960868738208573 0.0014647407479087033 0.0003429058132322586
55 0.002290847386745532 -0.00017385525341165044 -0.0020796008107183644
15 0.0004952988192278749 0.0008706910142908606 -6.725391092359234e-05
4 -0.0005345557269822517 -0.0016151169596642838 -0.0017677251549668433
12 -0.0002001249464379551 0.0005517465119616501 -0.0009684444450792017
58 0.00021570691285995467 -0.0008914276037796175 0.0008161669330220849
67 -0.0002009902205535529 0.0011653074712238457 0.0015135110943971977
20 -0.0005163567204724426 -0.001227046979247476 -0.0016809547131615204
24 0.0018703550465800454 -0.0011192313317123675 0.000539136653663058
26 -0.00020265272851094915 -0.001625347566738836 -0.001208482550969136
44 -0.0002476153848559814 0.0012869715594667442 -1.9165053794143406e-05
51 -0.0001452360762880729 -4.834754310094493e-05 0.0003109655024357522
56 -0.0002093132245690094 0.0008041712162704043 -0.0011449588042509596
63 -0.00033802245685796205 -0.0008312372976006144 -0.001561816355251906
2 0.0019382371500697643 -0.00425621251596916 -0.000315262569250746
23 -0.0013304386969444164 -0.0008133369330483726 0.000329090706265862
27 0.0008242062495873545 -0.0010395820496157387 0.0021739407423805018
34 -0.000149813690807615 0.0017421829164724566 -0.0016687836271434265
5 -0.0022964164027358797 0.00127751002398365 0.003835176778601662
39 0.0014242486515446684 0.0011177596890951116 0.0016773948893376621
57 0.0005396266869984888 -0.0007794527148827614 -0.000326709814844344
6 -0.00029728344825812774 -0.0008146500857048647 -0.0006554826474020103
41 4.542151641158449e-05 -0.001256436158430169 0.0002842581801273406
48 0.0008182345991276813 0.0014693822740968567 -0.0013560038654863529
62 -0.00042055959940323325 -0.0012163555836414606 -0.00022285760757765973
1 0.0036187907380697422 0.002757720255894537 -0.0005421204802598988
25 0.0016072995339554222 -0.0012036580982894992 0.001126335026021987
46 0.0006794652595353541 -0.0013522522061191707 0.002040182809652762
53 -0.0007622509719776147 0.002105294646892348 -8.969020670654285e-06
33 -0.00039903986411639987 0.0003137614804698276 0.00033136102607266054
35 -0.0007777598285079301 0.0006968403478906858 0.0006098177480699362
61 0.0008344323763198878 0.0004493931624509423 -0.0007493819781026638
60 -0.0008091429938489366 0.004356976004986626 -0.0015174231624924402
19 0.0010297128921038755 0.0010754977101826752 0.0007862196468109
45 0.0008081344923013088 0.00035652242943396323 -0.0011564244798555336
64 0.001498777518052091 0.0017449324121398557 -0.0024029574197277762
3 0.001544356706130024 -5.729771406021484e-05 0.004631756870853304
43 -0.0006320665941932235 -0.0014105600022967977 -3.879866121444215e-05
59 -0.00028814299706704435 0.001384251400763043 -0.0011950427033506393
66 0.0014604004007014793 -0.0016172266367395472 0.00034703952465602505
13 -0.0005513459924960755 -0.0012533422442054254 -0.002314054196000321
16 -0.0010626319353598975 -0.0011274014800092486 0.00029632538500374005
31 0.0016353435391120398 0.0028202948443131932 0.0020213950127799677
38 -0.001418670750785288 -0.0022658055124963263 -0.0013675641389018123
52 0.00021585293667228224 -0.00036601620237773684 -0.0005044143102938308
11 0.0003323286851003843 0.0004612704611223243 0.0011047107572788421
32 -0.0006437470279937539 -0.0020861785971410573 0.0012715254758109047
14 0.001991089682092731 0.0007734954169448793 0.0008553516324784891
18 0.0006024289701290082 -0.0012133744635475902 0.002440325392270156
22 -0.0004952982169975385 0.001355356470393643 -0.0007402656915521662
28 -0.0023784508047414352 -0.0007855719812310074 -0.0018718729544486771
37 -0.0005558580905073253 0.0019599746328318596 -0.00013941545095959336
7 -0.0014175371717556518 -0.0009183676913841365 -0.0015167653914854686
8 8.72643269469639e-05 -0.0005284290318905765 -0.0002596813541467741
21 -0.0010891607225930033 -0.001312883306476387 0.0017350040213467816
40 -0.0026147437197208212 0.00026560873232578635 -0.0007827226739402279
50 -0.0012564030882814543 0.0016138972167288057 -0.00022073767767671318
36 -0.0008010150474410137 -0.0008917734606527149 0.000623540048041642
17 0.0006893640801524508 0.00042134933610676114 0.0006379334711043213
49 -0.00023858379175118802 0.0014699852943252127 -0.001152485294255279
54 0.00032556253060111664 -0.00021323928573880428 0.001609332152249736
65 0.0005773621201620541 -0.0018945393049387778 0.00021534331080029525
