LAMMPS data file via write_data, version 7 Feb 2024, timestep = 71, units = metal

39 atoms
4 atom types

0 2.2858575148342073 xlo xhi
0 2.2858575148342073 ylo yhi
0 89.14844307853409 zlo zhi
0 18.28686011867366 50.288865326352564 xy xz yz

Masses

1 51.9961
2 55.845
3 28.085
4 50.9415

Atoms # atomic

15 1 2.162145668060586 5.496277219616841 6.2811600665968745 0 -1 0
18 1 2.144684582848273 3.1887982068208944 2.5656595422421153 0 0 0
32 1 1.0009584826992217 2.0366611227475913 0.7579068222300835 0 -1 0
35 1 1.0107000638865606 4.356726736020426 4.419841080965748 0 0 0
36 1 3.30891895116497 6.652767374398023 8.105139166906698 0 0 0
20 1 3.3146308754557032 6.664386276472559 11.77435727290884 0 1 0
38 1 2.173350061924173 7.802163862474771 9.94115376109365 0 -1 0
22 1 4.456757312795447 7.793561811855669 13.645546547812028 0 0 0
10 1 3.8264554818664838 11.428492851657325 18.109514220787933 1 0 0
25 1 4.5513455486009535 12.117602575608556 20.61478454907819 1 0 0
31 1 4.6330144424573145 11.184136652646202 15.79138040578804 0 0 0
13 1 6.882516640537555 16.735164895207024 27.194476878071423 0 0 0
17 1 5.691214581673275 13.43965020453577 22.538183812735333 0 0 0
39 4 5.913478597576994 15.606831953151518 24.955912348168113 0 0 0
16 1 8.196465229334853 21.447197641820896 35.768208287741125 1 0 0
27 1 8.20280207994398 22.4622171446861 38.622399298398015 1 0 0
34 1 10.418746576205193 25.4804774579325 42.74345202198074 1 1 0
4 3 9.902809537027245 26.436734212746394 45.243111401324235 1 1 0
14 1 11.04518678972029 27.505491806808077 47.36547379806998 0 1 0
1 2 13.244410954287092 31.220344788079828 55.195992887983564 0 1 0
3 3 11.02069282726096 29.115742790841654 51.3241668828006 1 1 0
7 1 12.189613205509929 28.645266774077957 49.19755700124931 0 1 0
11 1 12.100587026084291 32.374347771666585 53.36151777783385 1 0 0
6 1 12.940464155839802 35.0067847315888 61.72791016651651 1 1 0
8 1 13.473115862054645 32.364336067241354 57.32316373374945 0 1 0
19 1 14.017413583561734 33.62153432527383 59.46990962582789 1 1 0
23 1 15.2881385781561 39.1994318780526 67.97601536472389 1 1 0
30 1 15.225527442628435 38.086741117564955 65.68371797709881 0 1 0
33 1 14.083303831720666 36.14194879867547 63.552190549729744 1 1 0
21 1 15.926573752578634 42.86794720435446 74.6181930098569 1 1 0
24 1 15.233053589802305 41.74066043203943 72.3771320473667 1 1 0
26 1 16.428899165363163 40.7171490095854 69.98548381467832 0 1 0
12 1 17.022382894619458 44.04225453311665 76.4711173623911 1 1 0
28 1 18.075228544000876 45.09375485505862 78.4056088722945 1 1 0
37 1 16.93073387523649 46.53318692960167 80.39696727048049 1 1 0
2 2 18.14009182253077 51.17804126769755 88.0724235571847 1 1 0
5 1 18.128817718628742 48.82267172975041 84.36576289364532 1 1 0
9 1 19.27641936570767 49.99829345508673 86.22494293320462 1 1 0
29 1 18.071365408851825 47.69020765094326 82.23074074418989 1 1 0

Velocities

15 0.0005029298851455981 0.00107474177964597 -0.0003026700730147639
18 0.0006083137748168812 -0.0009753526572314985 0.002164034756642741
32 -0.0006175490919158202 -0.0018339297594343917 0.0010142867127179416
35 -0.000778888320111212 0.0009259136833659652 0.000379591129973183
36 -0.0008025960353661672 -0.0006936111179876513 0.00039358043625786673
20 -0.0004922352936984908 -0.000988802305849798 -0.001890066953118512
38 -0.0014322699843674963 -0.002094378865219991 -0.001636266336754024
22 -0.0004715200516478223 0.0015515070088908524 -0.0009647115117754469
10 -0.0007198765139084361 -4.942072046608139e-05 0.00014961347102607727
25 0.0015968045754126128 -0.0009657946723341421 0.0008714629211599537
31 0.0016243914528743398 0.002992566343483216 0.00175193309785869
13 -0.0005266542275989941 -0.0010146689482272836 -0.002512846679360125
17 0.0006938318102738296 0.0006327245376263716 0.0003910224928978304
39 0.0014804198893553905 0.0013659567122176989 0.0014839128084707573
16 -0.0010296060197883294 -0.0008907810652407718 5.4982745416610446e-05
27 0.0008264760022891889 -0.0008043931241640765 0.0019019922754368482
34 -0.00013166705148977582 0.0019320280402961483 -0.001878094260320812
4 -0.0005101376496461328 -0.0013705466015217387 -0.001975423004510426
14 0.001974338801660022 0.0009791305066188635 0.0006048966575289765
1 0.002553777663155901 0.00216386853492139 -0.0005700521861314245
3 0.001534887739047173 0.00016187961206631565 0.00431974508859505
7 -0.0013787261690785806 -0.0006851546049703226 -0.001728553978338143
11 0.0003426162247041474 0.000671994933484174 0.0008501911360249469
6 -0.0002767329971483225 -0.0005831276347669381 -0.0008813104627191349
8 0.00010154650656440894 -0.0003015720903842948 -0.0004919608774781443
19 0.0010286328102420072 0.0012762100503639071 0.0005368915488917882
23 -0.001293047431740527 -0.0005818358869862314 8.721397977861754e-05
30 -0.0012339915798647966 -0.00023224539219853465 -0.0012250594040118556
33 -0.0003768307456528465 0.0005268904039763966 8.944729252974939e-05
21 -0.0010557023779411954 -0.001073239469079669 0.0014702103859034232
24 0.0018555721855267775 -0.0008827440933941521 0.0002938361002574196
26 -0.00018364479326299333 -0.001380610445903045 -0.0014252962625667445
12 -0.0001811582149761832 0.0007609961911071953 -0.0011891708669126907
28 -0.0023239765531246123 -0.0005545235141907333 -0.002077873156197689
37 -0.0005526688536664612 0.002213625832725902 -0.0003842205285307809
2 0.001381420505272256 -0.00272906338270645 -0.0004117957058304138
5 -0.001632119901720302 0.0011617314738215784 0.002576854783661682
9 0.00017374260263390012 0.000390042007008498 0.0006700982231244251
29 -6.812589132470506e-05 -0.000582290863661179 0.0006704183164162031
