LAMMPS data file via write_data, version 7 Feb 2024, timestep = 49, units = metal

29 atoms
4 atom types

0 2.2858575148342073 xlo xhi
0 2.2858575148342073 ylo yhi
0 66.28986793019202 zlo zhi
0 9.14343005933683 25.144432663176282 xy xz yz

Masses

1 51.9961
2 55.845
3 28.085
4 50.9415

Atoms # atomic

17 1 0.8239247609386687 2.478352699118716 3.7061961553504594 0 0 0
18 1 3.014586519510632 3.055712682909148 6.131887566716178 0 0 0
25 4 1.940524123525287 1.3559376292338854 1.8727009629693054 0 0 0
3 3 1.991082021793083 4.682001186899073 11.000255160972419 0 1 0
6 1 3.1190670758499834 6.594634947004895 13.242076878726857 0 0 0
24 4 2.304211129843288 4.569014433784108 8.337229463184217 0 0 0
10 1 2.7163388473722985 7.650473806761444 15.4119308501481 0 0 0
26 4 4.131040293551799 8.265915372392241 18.182770702757924 0 0 0
2 3 3.87287120294872 8.574479358597054 20.593482988410276 0 1 0
11 1 3.9375170931406864 10.677044020193662 25.00264408539493 1 0 0
14 1 4.89783109049886 9.93549228871261 22.614292715063495 0 0 0
13 1 4.652630257125163 10.517065212454245 27.32558212777845 1 1 0
28 4 6.119090428410252 12.488142994895684 29.672228828273283 0 0 0
20 1 5.318128020644363 14.05670549408269 32.33152141791916 1 0 0
4 1 6.479999375439325 14.695324142811039 34.40802718464528 0 0 0
9 1 6.465752130654614 14.509894804411854 36.8732993489778 0 1 0
1 2 6.815559482544427 17.37609006929088 40.940112649035015 1 0 0
12 1 7.945429837907173 17.29735361522462 43.188905828935596 0 1 0
19 1 7.874209741813133 18.31007332082459 45.486820406145306 0 1 0
7 1 7.079158475270391 20.214910147279028 50.01565569190692 1 1 0
16 1 7.299533775083844 19.453209938327944 47.565352085796086 1 1 0
27 4 7.643002833459971 21.41126181314317 52.126192669755476 1 1 0
8 1 8.783357759088831 22.55719314849992 53.95917555517509 1 0 0
21 1 9.926001136845214 21.444757765505425 55.81714290213048 0 1 0
5 1 0.742605134614822 0.2654669458179184 0.046632120204187506 1 1 1
15 1 10.928405789581047 26.623022421785 64.49573533685454 1 0 0
22 1 8.507735943523825 24.59000931995314 60.70407803456453 2 1 0
23 1 9.680001746459364 25.69932222876502 62.542249853211985 1 1 0
29 4 8.523027932871276 24.004334065185066 58.35800218348724 1 1 0

Velocities

17 0.0006264890093149847 0.0008103079575955661 0.0004083744195651062
18 0.0005389034141221757 -0.0008366475351848255 0.002224252597477932
25 0.0015674756375086204 -0.0008401383800368993 0.0009104972637612592
3 0.0014878790508242802 0.00032807946826769654 0.0044320812909046155
6 -0.00036754103214987026 -0.0004349397333333014 -0.0008947195840060841
24 0.001835228674543865 -0.0007542039590755319 0.00031281297281993045
10 -0.0008213983788940951 0.00011167055182801478 0.0001611288794568364
26 -0.00027479792037621146 -0.001269358185151598 -0.0014660144121401368
2 0.0018847066744157991 -0.0039022533856266656 -0.0005519538356980975
11 0.0002667821248111007 0.0008505277893104138 0.0008786443303187148
14 0.00193795467138078 0.0011650889439738495 0.0006274193953470161
13 -0.0006235045795276736 -0.0008769143716391438 -0.0025657012646489183
28 -0.0024894503983780097 -0.0004145862733056242 -0.002141251336466264
20 -0.0005882535030094911 -0.0008504223544153367 -0.0019278646643876049
4 -0.00045114655100346316 -0.0007897093000653754 -0.0015015539768450372
9 9.382566454683087e-05 0.0005617581192662694 0.0006941973317164179
1 0.0025314025597798196 0.002378470247718484 -0.0005759360517610438
12 -0.00026965554942986515 0.000941680820132142 -0.0012100230938857717
19 0.0009693844546637346 0.001469350945778332 0.0005577701349972705
7 -0.0014961769666190722 -0.0005394333978946331 -0.0017624468089386068
16 -0.0011386161795172382 -0.0007500312655133811 6.42102776467532e-05
27 0.0007703982332777546 -0.0006731323367161794 0.001976810641389443
8 1.98840917422625e-05 -0.00014657705284348025 -0.0004959567384941231
21 -0.0011653434663283825 -0.0009369009452571909 0.0015136537144964366
5 -0.0017556969704751646 0.0013521046338195748 0.0026470533269470713
15 0.00043097167023594844 0.0012630117997840373 -0.0003020894719594852
22 -0.0005670374309274296 0.0017513037272999692 -0.000980137010660829
23 -0.001408426784274208 -0.00043361675511464074 9.722076286558714e-05
29 -0.00015526774882457424 -0.0004433178141188298 0.0007024716013688897
