LAMMPS data file via write_data, version 7 Feb 2024, timestep = 56, units = metal

27 atoms
3 atom types

0 4.571715029668415 xlo xhi
0 4.571715029668415 ylo yhi
0 9.14343005933683 zlo zhi
2.2858575148342073 0 2.2858575148342073 xy xz yz

Masses

1 55.845
2 28.085
3 51.9961

Atoms # atomic

1 2 2.441547509182181 1.3977644320939475 1.7236244027768466 0 1 0
2 2 2.8196792673388753 1.1064894331675013 3.778846146261268 0 1 0
3 2 4.335162132415262 3.180002833933708 6.223709082745504 -1 1 0
4 2 2.8123261434194697 3.5287398780973533 2.0198288748277253 0 0 0
5 2 3.4753853910617263 4.507110831039744 7.596988475734153 0 1 0
6 2 2.619252108257071 2.6144008076266285 5.151324752313432 0 1 0
7 3 3.0368817621918645 2.622133143163645 8.134140889554036 -1 1 0
8 3 3.6297143911917145 2.365498692181209 0.4691593041445185 0 0 0
9 3 5.486450114152944 2.548125705755513 1.2311975046675487 -1 0 0
10 3 1.9271699413556893 4.025370839986148 8.85964445726923 0 1 0
11 3 4.127187710297648 2.211513127000068 2.7291671599308183 0 0 0
12 3 4.196773343845994 3.7593712585579535 4.1533090773641215 0 0 0
13 3 4.931083279984916 1.89719772836061 4.706928347100819 -1 1 0
14 3 5.160923384062073 5.120062759572747 5.71125341403826 0 0 0
15 3 1.755954925737333 4.235123053624475 4.163476928839891 0 0 0
16 3 6.5166774762877475 5.866371202937405 7.087246045305607 -1 0 0
17 1 4.998655594840984 5.247555545916664 8.319645306439638 -1 1 0
18 1 1.6052528769504388 2.5760191622108968 3.2454635288342244 0 0 0
19 1 3.1064469263568895 4.799155216792217 5.5835672093708455 0 0 0
20 1 1.597110728926919 1.81646759837861 6.8443294136957755 0 1 0
21 1 4.058611510800978 4.395548953811339 0.5413007094626323 0 -1 0
22 1 1.7365624953099181 3.779934266470651 6.754925067202514 0 1 0
23 1 3.2015722453588995 5.244538993215004 3.017070912587627 0 0 0
24 1 4.4207112844633505 0.7283908984895017 1.211681981836307 0 0 0
25 1 2.118924900584163 3.7104918090540506 0.05072910874480434 0 0 0
26 1 4.997385034200396 3.0670694753871035 8.249641553072648 -1 1 0
27 1 5.168188159411207 4.1516663189028336 2.3294426313135634 0 0 0

Velocities

1 0.0035166441475293253 0.003212469933206341 -0.000858816805507902
2 0.0018025393705597037 -0.003941491568195959 -0.0006274298198558006
3 0.0014007953527949853 0.00034125191075859136 0.004418353733012403
4 -0.0007196212515574958 -0.0012476682103325918 -0.0021088899020115645
5 -0.002516656360838557 0.0017027082406575666 0.0036058704232761
6 -0.0006044535658421295 -0.0007589685344855315 -0.0012729676615415712
7 -0.0016202308621459105 -0.0005370087837977775 -0.0018529198856537187
8 -8.53869537246852e-05 -0.00013928524571143897 -0.0005707389609627632
9 -1.0529300748067674e-05 0.0005778256635340332 0.0006341602181770286
10 -0.0009370922779900759 0.0001221618514937628 9.448745090306896e-05
11 0.00016456995926830754 0.0008701729714209079 0.0008208923756122345
12 -0.00037851377209956275 0.0009624553193641244 -0.0012936520585170464
13 -0.0007367467240978181 -0.0008786708916021265 -0.0026661260566451105
14 0.00185644706994067 0.001188631300917853 0.0005665549536738305
15 0.0003307936889999865 0.0012877673468617594 -0.00037446982559919
16 -0.0012582401672811994 -0.000750215799741126 -3.6318990930936707e-06
17 0.0005057710966208844 0.0008171110422989604 0.00032755618333956
18 0.0004202105706967537 -0.0007917651413442546 0.0021014493854620195
19 0.0008407384457202805 0.0014609162770684067 0.00047349771579188743
20 -0.0006808853163210369 -0.0008052214725512055 -0.001954666644141033
21 -0.001244632364661647 -0.0008897005892063863 0.0014072802813398808
22 -0.0006601597817009961 0.00173635001956518 -0.0010288514309521539
23 -0.0014820953456580366 -0.00039805284846656874 2.359672000747751e-05
24 0.0016680886938718045 -0.0006991105640417776 0.0002303215026952797
25 0.0014091925125552418 -0.0007822024074691951 0.0008082353230985164
26 -0.00037214148969578906 -0.0011972242862873517 -0.0014896650277539292
27 0.000638481194192395 -0.000620720665371041 0.0018392767059021938
