LAMMPS data file via write_data, version 7 Feb 2024, timestep = 32, units = metal

18 atoms
3 atom types

0 9.14343005933683 xlo xhi
0 4.571715029668415 ylo yhi
0 4.571715029668415 zlo zhi
2.2858575148342073 0 0 xy xz yz

Masses

1 55.845
2 28.085
3 51.9961

Atoms # atomic

1 2 1.3788262936619904 0.7828769034473753 3.16652066677548 0 0 0
2 2 6.177623902302376 0.2731155671051838 0.004163567924292849 0 0 1
3 2 8.51741690629726 1.0034584218869964 1.251650030209823 0 0 0
4 3 4.245152472862126 2.2235897052278513 4.003720786874195 0 0 0
5 3 5.3708994430001615 3.949756342668396 3.0737009472431 0 0 0
6 3 4.390418776778358 3.5326041715317364 1.207507391097564 0 0 0
7 3 6.585893738209014 3.9369035348202077 1.241686040081915 0 0 0
8 3 8.005032917314116 2.7337761482252207 0.08779748610744331 0 0 0
9 1 6.346575502776199 2.0622449047039964 3.407663210620592 0 0 0
10 1 2.6233416246755668 3.9346904121410744 0.058139554383913945 0 0 0
11 1 4.967563372517121 1.4419686520839692 1.397253470500236 0 0 0
12 1 8.1659562304623 2.8104926119946683 2.440790808594137 0 0 0
13 1 8.126314316648616 0.822200923811193 3.706338675531484 0 0 0
14 1 2.905876002573945 0.6627943613198823 0.14154551102213628 0 0 0
15 1 2.6889321375084214 1.9366355375501663 1.7911809486912202 0 0 0
16 1 10.052166210799454 2.7958983647384064 3.8934047335626003 0 0 0
17 1 6.632584287207467 0.25193255350345284 2.168755812706249 0 0 0
18 1 2.21975203884955 3.8496548739305063 2.464582795434373 0 0 0

Velocities

1 0.003438459775315797 0.0029250474987145406 -0.0007962272179788714
2 0.0017907144037831455 -0.00395195740229177 -0.0005737980877624641
3 0.0014045233991801184 0.00016498506220850268 0.004276644316168547
4 -0.0004825283094269176 -0.0009228423512905292 -0.0014979450238089564
5 -0.0017521113905928534 0.001161562124672138 0.002539462472812636
6 -0.0004011637637226542 -0.0005775820739468515 -0.0009073762985848793
7 -0.0014995475945126357 -0.000679274876797522 -0.0017518448506608738
8 -2.4123233000002382e-05 -0.0002969487040708189 -0.0005193019440002625
9 4.394586175054404e-05 0.00038901861389273085 0.0006126217948389112
10 -0.0008155047316115414 -3.3640766257910763e-05 0.0001120383575041191
11 0.00020636241261066937 0.0006601907558868706 0.0007858286544364889
12 -0.00029738492743387095 0.0007457889512008285 -0.001175556068717882
13 -0.0006296705148347327 -0.0009619816519150546 -0.002448619660764585
14 0.0017756942576961454 0.000955582657969918 0.0005499132837945525
15 0.0003605463015180249 0.001047538127379751 -0.0003229516209979713
16 -0.0011133913845294107 -0.0008428307602520448 2.1025943188239983e-05
17 0.0005441488787102618 0.000622421907395643 0.0003442168362876012
18 0.00046190072067955564 -0.0009241686631376114 0.002049435999469665
