ats_0.data (written by ASE) 

8 	 atoms 
1  atom types
0.0      6.3200000000000003  xlo xhi
0.0      6.3200000000000003  ylo yhi
0.0      3.1600000000000001  zlo zhi


Atoms 

     1   1    0.024835707650561634  -0.0069132150585592333    0.032384426905034625
     2   1      1.6561514928204011      1.5682923312638331      1.5682931521525407
     3   1    0.078960640775369573      3.1983717364576449   -0.023473719296747606
     4   1      1.6071280021792982      4.7168291153593769       1.556713512321487
     5   1      3.1720981135783015   -0.095664012232889895   -0.086245891625651647
     6   1      4.7118856235379516      1.5293584439832786      1.5957123666297635
     7   1      3.1145987962239392       3.089384814933235    0.073282438446077708
     8   1      4.7287111849756736      4.7433764102343963      1.5087625906893269
