iter_0.data (written by ASE) 

2 	 atoms 
1  atom types
0.0      3.1600000000000001  xlo xhi
0.0      3.1600000000000001  ylo yhi
0.0      3.1600000000000001  zlo zhi


Atoms 

     1   1                       0                       0                       0
     2   1      1.5799999999999998      1.5799999999999998      1.5799999999999998
