LAMMPS (7 Feb 2024 - Development - 36358d5b14-modified)
OMP_NUM_THREADS environment is not set. Defaulting to 1 thread. (src/comm.cpp:98)
  using 1 OpenMP thread(s) per MPI task
Total wall time: 0:00:00
undary        p p p

read_data  ats_0.data
Reading data file ...
  orthogonal box = (0 0 0) to (6.32 6.32 3.16)
  1 by 1 by 1 MPI processor grid
  reading atoms ...
  8 atoms
  read_data CPU = 0.010 seconds

log log_0.lammps
