ats_8.data (written by ASE) 

7 	 atoms 
2  atom types
0.0      2.2858575148342073  xlo xhi
0.0      2.2858575148342073  ylo yhi
0.0      16.001002603839453  zlo zhi


Atoms 

     1   2    0.029054111322237619      1.4558618865034556      12.946469382078963
     2   2       2.039006304541823      1.0004413700951893      11.693444975676613
     3   1      1.0954794055008414     0.63578677928732641      10.568825164934287
     4   1      2.0915571795264953     0.53088915768939948      9.4976040145519729
     5   1     0.99632482324480798     0.86090060848704553      7.2859723884096308
     6   1      1.8691373165330092      0.7073239114164368    0.021356120065502453
     7   1     0.69669786432776637     0.67316307821238419      1.8690318915794644
