ats_0.data (written by ASE) 

7 	 atoms 
2  atom types
0.0      2.2858575148342073  xlo xhi
0.0      16.001002603839453  ylo yhi
0.0      2.2858575148342073  zlo zhi


Atoms 

     1   2      1.2636987301437326      7.6383300039213582      2.0032175086900077
     2   2      2.7041230786950878      13.127484565556118      1.5237980506183426
     3   2      1.7707586276708172     0.42656403132428977      1.0996243517812407
     4   2     0.89051251601808801      3.6425368913370626     0.73023450968104164
     5   1      1.6295225116683076      9.5013059891329039      1.7889372164316155
     6   1      0.6886486471800457      1.2250749288166467    0.091031539273890072
     7   1      2.8482434185091465      14.761715932324286      1.0310566001464054
