ats_7.data (written by ASE) 

7 	 atoms 
2  atom types
0.0      2.2858575148342073  xlo xhi
0.0      2.2858575148342073  ylo yhi
0.0      16.001002603839453  zlo zhi
                      0      9.1434300593368292      4.5717150296684146  xy xz yz


Atoms 

     1   2      3.4805842840666994      2.1617935380252806      2.1058273581208438
     2   2      13.493181975429934      8.1450893679885272      15.782815556298077
     3   2      12.114686800377154       7.965710891571673      14.156257044437316
     4   2      10.899108498023198      5.6303574994741057      12.768330441701492
     5   1       6.226727534113162      3.7628409628908406      7.3103259086570702
     6   1      4.1659996804715904      3.4929925318577837      3.6305678447113041
     7   1      6.9340605522092318      4.8889500217196256      7.7934006730156868
