ats_0.data (written by ASE) 

8 	 atoms 
2  atom types
0.0      2.5080936621097552  xlo xhi
0.0      5.0161873242195103  ylo yhi
0.0      10.032374648439021  zlo zhi
                      0                       0      2.5080936621097552  xy xz yz


Atoms 

     1   2      4.0440254559536415      3.9410335321004197      1.8135864316228925
     2   2      2.7951268120370281      5.5872737794055771      5.9927182199637929
     3   1      5.0100021748850718      9.3582473361708267       8.484319187401189
     4   1      4.9498379789433491       11.10246037545766      9.7505640254639161
     5   1      2.1738672029887751      1.1721538322385012     0.71983047682147783
     6   1      4.3189167936268911      8.8150060507831469      7.1764629504558481
     7   1      6.7648390439180348      11.858935158543234      9.8344297790359096
     8   1      3.6976716142457002      8.3099088105139014      5.6103210511009429
