ats_2.data (written by ASE) 

3 	 atoms 
1  atom types
0.0      2.5080936621097552  xlo xhi
0.0      2.5080936621097552  ylo yhi
0.0      7.5242809863292655  zlo zhi
                      0      2.5080936621097552                       0  xy xz yz


Atoms 

     1   1      5.7664935794587198      1.3260644921015743         7.0566817707978
     2   1      1.0988666706794241      1.9330184864694071     0.20184293700360278
     3   1      7.0450983327017314      1.8787524578355299      7.0711667514485992
