ats_5.data (written by ASE) 

5 	 atoms 
2  atom types
0.0      2.5080936621097552  xlo xhi
0.0      2.5080936621097552  ylo yhi
0.0      12.540468310548775  zlo zhi
                      0      2.5080936621097552      5.0161873242195103  xy xz yz


Atoms 

     1   2      4.2585218583872448      4.9851035735713305      8.2538717371133519
     2   2      2.2450374367155019      2.0173825135739767      1.8114925610631207
     3   2      1.1887877643024813     0.62720740325838875     0.39331039456462946
     4   2      4.8364049760750065      5.5728466626576152      6.0360974442144357
     5   1      6.2688645767912883      7.4035961031284634      10.219991907558541
