ats_6.data (written by ASE) 

2 	 atoms 
2  atom types
0.0      2.5080936621097552  xlo xhi
0.0      5.0161873242195103  ylo yhi
0.0      2.5080936621097552  zlo zhi


Atoms 

     1   2     0.40247789983613741      2.6818270304726743     0.55381662637787221
     2   1      0.6506466316220485      4.3188400561993125      1.5448194036778635
