ats_4.data (written by ASE) 

3 	 atoms 
1  atom types
0.0      2.5080936621097552  xlo xhi
0.0      2.5080936621097552  ylo yhi
0.0      7.5242809863292655  zlo zhi
                      0      2.5080936621097552                       0  xy xz yz


Atoms 

     1   1      3.6152611895856395      1.2357054317514298      1.9450661294137357
     2   1      5.5616642869501325      4.0529053569242688      6.5433026387427891
     3   1      4.2331760928942836      3.4435519012736076      4.1002967137961228
