ats_7.data (written by ASE) 

3 	 atoms 
2  atom types
0.0      2.5080936621097552  xlo xhi
0.0      2.5080936621097552  ylo yhi
0.0      7.5242809863292655  zlo zhi


Atoms 

     1   2      2.2511941657606092     0.59140715816294587     0.17486946580106996
     2   2      1.0305856735706267      1.3759059012848729      1.2384783032133138
     3   1      1.9928741993227332       2.479176819930013      2.9533765112404717
