ats_10.data (written by ASE) 

4 	 atoms 
1  atom types
0.0      2.5080936621097552  xlo xhi
0.0      5.0161873242195103  ylo yhi
0.0      5.0161873242195103  zlo zhi


Atoms 

     1   1       2.589615941717422      2.5154064113429246      1.4858013371835872
     2   1      1.7308671676811263      1.9785495263297987      3.2517343464341897
     3   1      3.1584944632755358      1.4988709385246821     0.48145276205691628
     4   1      1.4510352705724476       1.124384360437549      3.9911508830369469
