ats_9.data (written by ASE) 

3 	 atoms 
2  atom types
0.0      2.5080936621097552  xlo xhi
0.0      2.5080936621097552  ylo yhi
0.0      7.5242809863292655  zlo zhi
                      0                       0      2.5080936621097552  xy xz yz


Atoms 

     1   2       1.835773112013136      2.6232047776404488     0.42715300685456425
     2   1      4.3128110599252025      5.2730892832520748      6.2405487419739414
     3   1      2.5227160803125428      4.6466805877269319      6.4234370775484662
