ats_1.data (written by ASE) 

4 	 atoms 
2  atom types
0.0      2.5080936621097552  xlo xhi
0.0      5.0161873242195103  ylo yhi
0.0      5.0161873242195103  zlo zhi
                      0                       0      2.5080936621097552  xy xz yz


Atoms 

     1   2     0.72395172617487091      1.0829499405630671      2.0519669244494736
     2   2      2.5899604843434303      4.4055064690594703      2.7985527626861986
     3   2      1.0830424761140256      4.6058822609868999      4.9141746830743562
     4   1        2.08610669376159      4.0399428828508031    0.047080406481806121
