ats_8.data (written by ASE) 

7 	 atoms 
1  atom types
0.0      2.5080936621097552  xlo xhi
0.0      2.5080936621097552  ylo yhi
0.0      17.556655634768287  zlo zhi
                      0      10.032374648439021                       0  xy xz yz


Atoms 

     1   1      9.7186223133500214      2.8887283153674774      11.336343463087575
     2   1      9.4283845985872681      1.8530933013025115      10.023617740553656
     3   1      7.2138887389931003      2.2218963904673079      8.9792170077590647
     4   1      2.0770861027482601      1.9535291847447247     0.99071778274607591
     5   1      8.4397036949826933      2.6651133200029316      11.396697985926235
     6   1      10.492149868115494      2.2866911147696385      12.545805054681587
     7   1      2.4986119965571092      2.2957069456900614      2.5766451607635976
