ats_3.data (written by ASE) 

9 	 atoms 
2  atom types
0.0      2.5080936621097552  xlo xhi
0.0      2.5080936621097552  ylo yhi
0.0      22.572842958987795  zlo zhi
                      0      15.048561972658533      7.5242809863292655  xy xz yz


Atoms 

     1   2      4.5178471436003509      3.0382295838924662      4.4514765586507847
     2   2      15.004031215475182      8.0622586576771749      16.667298373229457
     3   2      10.971255681791282      8.6159096512454294      13.900543479052185
     4   2      14.683127069510032      8.9134488072783657      18.335714586893431
     5   1       9.924083010219066      5.7102633562127689      12.118334894215641
     6   1        11.5630583450563      7.7183075734519067      14.796235703225747
     7   1       2.439246331778135      2.3250486574196088     0.20714469703326113
     8   1      2.1819486756753022      2.8159750171332876      1.9790210078749118
     9   1      7.3096847833818011      3.2456599935439829      6.8950095827452156
