ats_4.data (written by ASE) 

5 	 atoms 
2  atom types
0.0      2.5080936621097552  xlo xhi
0.0      12.540468310548775  ylo yhi
0.0      2.5080936621097552  zlo zhi
     7.5242809863292655                       0                       0  xy xz yz


Atoms 

     1   1      9.7024746880047559      12.070131965523816      2.1622777185908557
     2   1      7.5679154812912977      6.6057334729763548     0.60759792648962385
     3   2      2.5208904785305815      1.6192390725359127     0.25379639478006677
     4   2      10.043790986578987       10.64262539343197      1.2795827155719732
     5   2      5.1292264172876187       4.163492716713284     0.53231250711889366
