ats_5.data (written by ASE) 

7 	 atoms 
2  atom types
0.0      2.5080936621097552  xlo xhi
0.0      2.5080936621097552  ylo yhi
0.0      17.556655634768287  zlo zhi
                      0      5.0161873242195103      2.5080936621097552  xy xz yz


Atoms 

     1   1      8.9673083046226978      6.7187616452941672      16.780522818292074
     2   1      8.1690030562690197      5.4715299981608121      16.574897333334544
     3   1      6.8545035120349436      5.2274262131261766      12.112873753808143
     4   1      9.6904316904031429      5.2200928124324566      17.147299053637287
     5   1      5.8771190028511873      4.9716986483263614       11.17184245741756
     6   1      3.8043417535720425      2.7811600921582986      8.7502354661316897
     7   2      5.0225796673615921      5.0561322921438858      9.2855768611115046
