ats_9.data (written by ASE) 

5 	 atoms 
1  atom types
0.0      2.5080936621097552  xlo xhi
0.0      2.5080936621097552  ylo yhi
0.0      12.540468310548775  zlo zhi
                      0                       0      7.5242809863292655  xy xz yz


Atoms 

     1   1     0.62550520005695942      4.7515951084074564      5.6756484149484674
     2   1       1.922914059351809      7.7627545882619176      7.4370851122273534
     3   1     0.73133805652813011      9.1729179123917017      9.9431269298959215
     4   1      1.8291204927350211       5.950493804909204      5.1163540043988087
     5   1      1.5176306456346333      3.7464212996901276      3.3918218169897814
