ats_10.data (written by ASE) 

6 	 atoms 
2  atom types
0.0      2.5080936621097552  xlo xhi
0.0      2.5080936621097552  ylo yhi
0.0      15.048561972658531  zlo zhi
                      0                       0      7.5242809863292655  xy xz yz


Atoms 

     1   1      1.4455204711301526      7.8180865252845972      8.6112370670475382
     2   2        2.22866261820772      10.459551718512335      14.605310255760488
     3   2     0.82117731962113538      8.7292558747625133      11.947687447345276
     4   2      2.0857075242103811      6.7551467448620928      7.7547036616161478
     5   2      1.9100501193715111      8.7443148788910232      10.416384122817496
     6   2     0.75446763452661525       6.371967043021681      5.8496877365755973
