ats_1.data (written by ASE) 

6 	 atoms 
2  atom types
0.0      2.5080936621097552  xlo xhi
0.0      7.5242809863292655  ylo yhi
0.0      5.0161873242195103  zlo zhi
                      0                       0      2.5080936621097552  xy xz yz


Atoms 

     1   1      1.2989199711575405        5.97793036878672      2.1266414677831915
     2   1       0.995126793848498      2.8433861307531094     0.43563819180822921
     3   1      3.5297616657320012      5.8010060622131903      3.7218938326191027
     4   2      1.9559522068533073      3.2365672026611634      2.8284923071614858
     5   2      2.5727686558542811      7.7293799492216104      2.2081039696787568
     6   2      3.2797437568308641      2.6483504311898933      4.3074962609702174
