ats_7.data (written by ASE) 

9 	 atoms 
2  atom types
0.0      22.572842958987795  xlo xhi
0.0      2.5080936621097552  ylo yhi
0.0      2.5080936621097552  zlo zhi


Atoms 

     1   1      21.338939833394452      2.0700393707911884     0.40391432501447105
     2   1       7.644702327678111     0.41982719693283926       2.092142091390528
     3   2        18.4247015796185      1.1760787203588088     0.74089050192380868
     4   2      8.7010898485088788      1.1475513481746786      1.1114329497892754
     5   2     0.26712669513352338      1.0877431423202872     0.33615894669182511
     6   2      20.523318973700388     0.59675528791188781      1.5265926511166321
     7   2      13.606194900752104      1.8772909512761222      2.4386653517569084
     8   2      11.261919351957483      1.3171441968525723      2.3231902510598483
     9   2      9.4513457708301232      2.1249660743557306       2.326240125629385
