ats_8.data (written by ASE) 

2 	 atoms 
1  atom types
0.0      2.5080936621097552  xlo xhi
0.0      2.5080936621097552  ylo yhi
0.0      5.0161873242195103  zlo zhi


Atoms 

     1   1      1.0304148115701361      1.0713125251426348      1.3018231552775767
     2   1      1.9593917688819384     0.16626360593914891    0.033008663405565075
