ats_2.data (written by ASE) 

6 	 atoms 
2  atom types
0.0      2.5080936621097552  xlo xhi
0.0      7.5242809863292655  ylo yhi
0.0      5.0161873242195103  zlo zhi
     2.5080936621097552                       0      2.5080936621097552  xy xz yz


Atoms 

     1   1      3.2224246214955201      6.7328431152744681      4.3433880839981294
     2   1      1.7950939035931923      2.1876037311672558      3.2343541644568146
     3   1      2.2494505061228196      2.6935763207016121     0.43821446062062308
     4   1      4.0138558982049863      5.3173031799052888      4.3629966303080119
     5   1       2.423630899386628      3.4037788828039033      3.2334123018356102
     6   2      4.4080990626051904      6.1130149769787945      2.9935078568816884
