ats_6.data (written by ASE) 

2 	 atoms 
1  atom types
0.0      2.5080936621097552  xlo xhi
0.0      5.0161873242195103  ylo yhi
0.0      2.5080936621097552  zlo zhi


Atoms 

     1   1      1.8897102028118637       3.268983615416849      1.8784060268380298
     2   1      2.5560730724664387      1.0421534621622208      2.4637131368695351
