ats_0.data (written by ASE) 

6 	 atoms 
2  atom types
0.0      2.5080936621097552  xlo xhi
0.0      7.5242809863292655  ylo yhi
0.0      5.0161873242195103  zlo zhi
                      0                       0      2.5080936621097552  xy xz yz


Atoms 

     1   1      3.1819974538351845      4.7367957308754569      4.8031188924274133
     2   1      6.4049274989940219      9.5395804416422312      4.3092474877226357
     3   2      2.8415730561245618      2.6196741589909505      2.1041096777116217
     4   2      4.2543630421414429      6.6332203265979324      2.6315772980350061
     5   2      2.0309387528933005      1.1926391019293652      1.4983091204342502
     6   2      2.5296942139848482      6.0166494098214356      1.3055531617341334
