ats_3.data (written by ASE) 

5 	 atoms 
1  atom types
0.0      2.5080936621097552  xlo xhi
0.0      2.5080936621097552  ylo yhi
0.0      12.540468310548775  zlo zhi
                      0      7.5242809863292655                       0  xy xz yz


Atoms 

     1   1      4.5115889225890564      2.5862677315273208      3.9926065729370812
     2   1      6.7151486818402741      2.4758611217569224      6.9678013379796218
     3   1      7.6350471880606579      3.0366118509100333      7.7936114855842522
     4   1      6.0856329948706485      2.7843160481785185      6.2007324425917458
     5   1      3.6982536994736521      2.1259234899405546      2.3679383782538075
