mass 1 183.840000
mass 2 9.012183
pair_style hybrid/overlay soft 2.592 mliap model mliappy LATER descriptor ace coupling_coefficients.yace
Loading python model deferred.
pair_coeff * * soft 100.0
pair_coeff * * mliap   W Be

thermo 10
velocity all create 0.0001 4928459 dist gaussian
Loading python model complete.
min_style  fire
min_modify integrator eulerexplicit tmax 10.0 tmin 0.0 delaystep 5 dtgrow 1.1 dtshrink 0.5 alpha0 0.1 alphashrink 0.99 vdfmax 100000 halfstepback no initialdelay no
minimize 1e-6 1e-6 10000 100000
Neighbor list info ...
  update: every = 1 steps, delay = 0 steps, check = yes
  max neighbors/atom: 2000, page size: 100000
  master list distance cutoff = 12
  ghost atom cutoff = 12
  binsize = 6, bins = 2 3 1
  2 neighbor lists, perpetual/occasional/extra = 2 0 0
  (1) pair soft, perpetual, half/full trim from (2)
      attributes: half, newton on, cut 4.5920000000000005
      pair build: halffull/trim/newton/tri
      stencil: none
      bin: none
  (2) pair mliap, perpetual
      attributes: full, newton on
      pair build: full/bin/atomonly
      stencil: full/bin/3d
      bin: standard
  Parameters for fire:
    dmax  delaystep dtgrow dtshrink alpha0 alphashrink tmax tmin   integrator   halfstepback   abcfire  
     0.1      5      1.1     0.5     0.1      0.99      10   0   eulerexplicit       no          no     
Per MPI rank memory allocation (min/avg/max) = 3.913 | 3.913 | 3.913 Mbytes
   Step          Temp          E_pair         E_mol          TotEng         Press     
         0   0             -7.4519296      0             -7.4519296      3481386.1    
        10   185043.97     -64.796477      0              30.878764      3196234.4    
        20   3244.2484     -72.239691      0             -70.562283      1145507.5    
        30   13126.24      -73.504621      0             -66.717822      771970.42    
        40   965.29793     -74.86944       0             -74.370342      863225.77    
        50   4129.1429     -77.56137       0             -75.426436      1227669      
        60   679.08796     -78.640079      0             -78.288963      858929.78    
        70   433.5409      -78.845266      0             -78.621107      750657.61    
        80   2689.2526     -79.734721      0             -78.344269      674193.05    
        90   43.192805     -79.919038      0             -79.896706      867407.44    
       100   530.84046     -79.89667       0             -79.622204      749965.56    
       110   915.35196     -80.238704      0             -79.76543       776792.97    
       120   3.1388315     -80.277729      0             -80.276106      801029.1     
       130   160.59197     -80.310122      0             -80.22709       780023.36    
       140   1294.5445     -80.569978      0             -79.900645      774696.56    
       150   1977.1646     -81.790302      0             -80.768028      678093.33    
       160   1375.1773     -84.848322      0             -84.1373        670665.59    
       170   876.50436     -85.735337      0             -85.282149      763716.43    
       180   681.64153     -85.869019      0             -85.516583      753841       
       190   3381.4631     -83.731458      0             -81.983104      1048480.5    
       200   98.511583     -83.819406      0             -83.768471      1003149.7    
       210   597.51953     -83.925281      0             -83.616339      935845.64    
       220   439.92108     -84.125265      0             -83.897808      958218.76    
       230   249.42139     -84.176254      0             -84.047293      958873.25    
       240   1433.2899     -84.483859      0             -83.742789      944913.3     
       250   629.77078     -84.651579      0             -84.325962      942216.95    
       260   2.1460746     -85.049892      0             -85.048783      903162.07    
       270   424.35524     -85.154727      0             -84.935318      890257.48    
       280   3965.4558     -86.258396      0             -84.208095      812958.67    
       290   1335.8754     -87.509294      0             -86.818592      794715.06    
       300   188.23385     -87.845425      0             -87.748101      884731.35    
       310   26.105725     -87.852555      0             -87.839058      886423.82    
       320   176.96188     -87.887823      0             -87.796326      916391.73    
       330   1008.4013     -88.000181      0             -87.478796      911755.87    
       340   24.597276     -88.091464      0             -88.078746      956428.05    
       350   248.21617     -88.162639      0             -88.034301      953131.36    
       360   44.100935     -88.291836      0             -88.269034      902006.32    
       370   36.037589     -88.338827      0             -88.320194      947349.42    
       380   260.96793     -88.388084      0             -88.253153      923142.57    
       390   100.76002     -88.525693      0             -88.473596      909130.3     
       400   111.80673     -88.552423      0             -88.494614      920866.94    
       410   488.64177     -88.641564      0             -88.388916      946256.41    
       420   3.8401894     -88.767361      0             -88.765375      919389.85    
       430   122.81398     -88.800368      0             -88.736868      906095.02    
       440   1004.2871     -89.05067       0             -88.531413      901691.57    
       450   38.129407     -89.124267      0             -89.104553      957149.92    
       460   273.72892     -89.18391       0             -89.042381      988802.63    
       470   14.879489     -89.217349      0             -89.209655      1009408.2    
       480   3.8379202     -89.223494      0             -89.22151       1022987.5    
       490   39.241437     -89.231353      0             -89.211064      1014626.2    
       500   166.77894     -89.260088      0             -89.173856      1002134.4    
       510   5.9218514     -89.28539       0             -89.282329      1018944.3    
       520   44.170736     -89.292546      0             -89.269708      1009256.9    
       530   0.98011883    -89.305361      0             -89.304854      1014367.6    
       540   19.96316      -89.309899      0             -89.299577      1021941.3    
       550   9.5225772     -89.325108      0             -89.320185      1021265.5    
       560   13.324869     -89.327964      0             -89.321075      1019096.5    
       570   57.648598     -89.338358      0             -89.308551      1008470.5    
       580   18.596266     -89.3498        0             -89.340185      1009175.5    
       590   18.312515     -89.357812      0             -89.348344      1011678.4    
       600   11.860303     -89.367934      0             -89.361802      1020449      
       610   4.8336927     -89.370054      0             -89.367555      1015687.4    
       620   33.46026      -89.377554      0             -89.360253      1015549.7    
       630   21.526227     -89.388506      0             -89.377377      983031.64    
       640   18.910527     -89.419201      0             -89.409424      1008911.1    
       650   136.81945     -89.433305      0             -89.362564      992407.8     
       660   13.188733     -89.449958      0             -89.443139      1015004.6    
       670   79.192145     -89.462337      0             -89.421392      1023269.5    
       680   0.58724691    -89.486045      0             -89.485742      1017151.6    
       690   26.732859     -89.491817      0             -89.477995      1006263.2    
       700   165.84737     -89.516601      0             -89.430851      965232.87    
       710   44.047258     -89.559116      0             -89.536342      994660.1     
       720   11.04396      -89.561749      0             -89.556039      994816.48    
       730   62.58788      -89.575601      0             -89.543241      994545.51    
       740   36.136616     -89.626683      0             -89.607999      1005668.4    
       750   9.8959239     -89.635674      0             -89.630557      994041.83    
       760   112.72886     -89.668044      0             -89.609758      999671.6     
       770   19.500913     -89.708715      0             -89.698632      991966.48    
       773   49.745345     -89.710725      0             -89.685005      978361.36    
Loop time of 6.64011 on 1 procs for 773 steps with 5 atoms

99.9% CPU use with 1 MPI tasks x 1 OpenMP threads

Minimization stats:
  Stopping criterion = energy tolerance
  Energy initial, next-to-last, final = 
     -7.45192958565137  -89.7107310984361  -89.7107252382046
  Force two-norm initial, final = 154.2588 3.5155052
  Force max component initial, final = 114.89761 2.1563343
  Final line search alpha, max atom move = 0 0
  Iterations, force evaluations = 773 836

MPI task timing breakdown:
Section |  min time  |  avg time  |  max time  |%varavg| %total
---------------------------------------------------------------
Pair    | 6.6288     | 6.6288     | 6.6288     |   0.0 | 99.83
Neigh   | 0.00020526 | 0.00020526 | 0.00020526 |   0.0 |  0.00
Comm    | 0.0069714  | 0.0069714  | 0.0069714  |   0.0 |  0.10
Output  | 0.00086177 | 0.00086177 | 0.00086177 |   0.0 |  0.01
Modify  | 0          | 0          | 0          |   0.0 |  0.00
Other   |            | 0.003236   |            |       |  0.05

Nlocal:              5 ave           5 max           5 min
Histogram: 1 0 0 0 0 0 0 0 0 0
Nghost:           1975 ave        1975 max        1975 min
Histogram: 1 0 0 0 0 0 0 0 0 0
Neighs:             75 ave          75 max          75 min
Histogram: 1 0 0 0 0 0 0 0 0 0
FullNghs:         1908 ave        1908 max        1908 min
Histogram: 1 0 0 0 0 0 0 0 0 0

Total # of neighbors = 1908
Ave neighs/atom = 381.6
Neighbor list builds = 3
Dangerous builds = 0
write_data ./StructureDump/sample.4.dat 
System init for write_data ...
variable etot equal etotal
variable ptot equal press
variable pairp equal epair
variable numat equal atoms
run 0
WARNING: No fixes with time integration, atoms won't move (src/verlet.cpp:60)
Per MPI rank memory allocation (min/avg/max) = 3.915 | 3.915 | 3.915 Mbytes
   Step          Temp          E_pair         E_mol          TotEng         Press     
       773   49.745345     -89.710725      0             -89.685005      978361.36    
Loop time of 4.667e-05 on 1 procs for 0 steps with 5 atoms

0.0% CPU use with 1 MPI tasks x 1 OpenMP threads

MPI task timing breakdown:
Section |  min time  |  avg time  |  max time  |%varavg| %total
---------------------------------------------------------------
Pair    | 0          | 0          | 0          |   0.0 |  0.00
Neigh   | 0          | 0          | 0          |   0.0 |  0.00
Comm    | 0          | 0          | 0          |   0.0 |  0.00
Output  | 0          | 0          | 0          |   0.0 |  0.00
Modify  | 0          | 0          | 0          |   0.0 |  0.00
Other   |            | 4.667e-05  |            |       |100.00

Nlocal:              5 ave           5 max           5 min
Histogram: 1 0 0 0 0 0 0 0 0 0
Nghost:           1903 ave        1903 max        1903 min
Histogram: 1 0 0 0 0 0 0 0 0 0
Neighs:             76 ave          76 max          76 min
Histogram: 1 0 0 0 0 0 0 0 0 0
FullNghs:         1926 ave        1926 max        1926 min
Histogram: 1 0 0 0 0 0 0 0 0 0

Total # of neighbors = 1926
Ave neighs/atom = 385.2
Neighbor list builds = 0
Dangerous builds = 0
print "${etot} ${pairp} ${ptot} ${numat} " append Summary.dat screen no
Total wall time: 0:00:06
