mass 1 183.840000
mass 2 9.012183
pair_style hybrid/overlay soft 2.592 mliap model mliappy LATER descriptor ace coupling_coefficients.yace
Loading python model deferred.
pair_coeff * * soft 100.0
pair_coeff * * mliap   W Be

thermo 10
velocity all create 0.0001 4928459 dist gaussian
Loading python model complete.
min_style  fire
min_modify integrator eulerexplicit tmax 10.0 tmin 0.0 delaystep 5 dtgrow 1.1 dtshrink 0.5 alpha0 0.1 alphashrink 0.99 vdfmax 100000 halfstepback no initialdelay no
minimize 1e-6 1e-6 10000 100000
Neighbor list info ...
  update: every = 1 steps, delay = 0 steps, check = yes
  max neighbors/atom: 2000, page size: 100000
  master list distance cutoff = 12
  ghost atom cutoff = 12
  binsize = 6, bins = 1 2 1
  2 neighbor lists, perpetual/occasional/extra = 2 0 0
  (1) pair soft, perpetual, half/full trim from (2)
      attributes: half, newton on, cut 4.5920000000000005
      pair build: halffull/trim/newton/tri
      stencil: none
      bin: none
  (2) pair mliap, perpetual
      attributes: full, newton on
      pair build: full/bin/atomonly
      stencil: full/bin/3d
      bin: standard
  Parameters for fire:
    dmax  delaystep dtgrow dtshrink alpha0 alphashrink tmax tmin   integrator   halfstepback   abcfire  
     0.1      5      1.1     0.5     0.1      0.99      10   0   eulerexplicit       no          no     
Per MPI rank memory allocation (min/avg/max) = 3.81 | 3.81 | 3.81 Mbytes
   Step          Temp          E_pair         E_mol          TotEng         Press     
         0   0              82.808535      0              82.808535      4355392.8    
        10   485506.69     -12.107249      0              301.67608      6823519.8    
        20   2271.148      -61.695378      0             -60.227534      1511200.6    
        30   5045.6716     -70.353231      0             -67.09221       480612.9     
        40   242.31313     -71.326742      0             -71.170135      223513.95    
        50   1673.4413     -72.308061      0             -71.226514      237399.58    
        60   4047.3724     -72.441427      0             -69.825607      470043.79    
        70   2106.4701     -73.901956      0             -72.540543      353064.44    
        80   1321.0241     -74.872481      0             -74.018702      355192.83    
        90   205.74398     -75.039135      0             -74.906162      262770.6     
       100   1282.3363     -74.850693      0             -74.021918      307042.45    
       110   1018.8146     -77.908757      0             -77.250296      310323.83    
       120   294.21211     -78.199411      0             -78.009261      369109.82    
       130   1227.5637     -78.149658      0             -77.356283      465549.43    
       140   148.38974     -78.351133      0             -78.255229      494639.74    
       150   1189.7983     -78.539238      0             -77.770271      454755.65    
       160   37.785006     -77.839871      0             -77.81545       466527.49    
       170   908.74638     -78.378624      0             -77.7913        514758.98    
       180   349.89683     -79.126736      0             -78.900598      456670.99    
       190   523.62641     -79.562046      0             -79.223626      369241.12    
       200   2888.5523     -79.786097      0             -77.919224      307038.93    
       210   9.4942913     -80.350342      0             -80.344205      232882.58    
       220   476.38162     -80.476385      0             -80.168499      296836.44    
       230   2581.6766     -81.071536      0             -79.402996      379842.4     
       240   70.053754     -82.118206      0             -82.07293       189880.54    
       250   1164.8537     -74.563542      0             -73.810696      280869.19    
       260   148.65873     -74.908112      0             -74.812034      251092.61    
       270   29.596159     -75.043323      0             -75.024195      177495.82    
       280   394.04439     -75.122976      0             -74.868305      203301.71    
       290   31.010461     -75.156004      0             -75.135962      221879.57    
       300   7.022587      -75.16654       0             -75.162001      224368.76    
       310   54.280423     -75.178661      0             -75.143579      218355.23    
       320   237.15577     -73.481405      0             -73.328131      283817.65    
       330   17.475957     -73.502811      0             -73.491516      244470.44    
       340   1.0566473     -75.230087      0             -75.229404      152840.37    
       350   19.610865     -73.519682      0             -73.507007      220723.28    
       360   3.3811811     -73.545215      0             -73.543029      198576.97    
       370   8.0226963     -73.548892      0             -73.543706      201811.51    
       380   41.452652     -73.601463      0             -73.574672      236632.59    
       390   1.0117807     -73.602921      0             -73.602267      234365.78    
       400   9.0516044     -73.604959      0             -73.599109      235098.23    
       405   17.204722     -73.606853      0             -73.595733      238387.35    
Loop time of 3.9073 on 1 procs for 405 steps with 6 atoms

99.6% CPU use with 1 MPI tasks x 1 OpenMP threads

Minimization stats:
  Stopping criterion = energy tolerance
  Energy initial, next-to-last, final = 
      82.8085351423861  -73.6068679066276  -73.6068525819908
  Force two-norm initial, final = 241.59214 1.0627074
  Force max component initial, final = 108.37846 0.66113749
  Final line search alpha, max atom move = 0 0
  Iterations, force evaluations = 405 437

MPI task timing breakdown:
Section |  min time  |  avg time  |  max time  |%varavg| %total
---------------------------------------------------------------
Pair    | 3.9013     | 3.9013     | 3.9013     |   0.0 | 99.85
Neigh   | 0.00016542 | 0.00016542 | 0.00016542 |   0.0 |  0.00
Comm    | 0.0035134  | 0.0035134  | 0.0035134  |   0.0 |  0.09
Output  | 0.00052661 | 0.00052661 | 0.00052661 |   0.0 |  0.01
Modify  | 0          | 0          | 0          |   0.0 |  0.00
Other   |            | 0.001797   |            |       |  0.05

Nlocal:              6 ave           6 max           6 min
Histogram: 1 0 0 0 0 0 0 0 0 0
Nghost:           1748 ave        1748 max        1748 min
Histogram: 1 0 0 0 0 0 0 0 0 0
Neighs:             76 ave          76 max          76 min
Histogram: 1 0 0 0 0 0 0 0 0 0
FullNghs:         2412 ave        2412 max        2412 min
Histogram: 1 0 0 0 0 0 0 0 0 0

Total # of neighbors = 2412
Ave neighs/atom = 402
Neighbor list builds = 2
Dangerous builds = 0
write_data ./StructureDump/sample.1.dat 
System init for write_data ...
variable etot equal etotal
variable ptot equal press
variable pairp equal epair
variable numat equal atoms
run 0
WARNING: No fixes with time integration, atoms won't move (src/verlet.cpp:60)
Per MPI rank memory allocation (min/avg/max) = 3.813 | 3.813 | 3.813 Mbytes
   Step          Temp          E_pair         E_mol          TotEng         Press     
       405   17.204722     -73.606853      0             -73.595733      238387.35    
Loop time of 4.3849e-05 on 1 procs for 0 steps with 6 atoms

29.6% CPU use with 1 MPI tasks x 1 OpenMP threads

MPI task timing breakdown:
Section |  min time  |  avg time  |  max time  |%varavg| %total
---------------------------------------------------------------
Pair    | 0          | 0          | 0          |   0.0 |  0.00
Neigh   | 0          | 0          | 0          |   0.0 |  0.00
Comm    | 0          | 0          | 0          |   0.0 |  0.00
Output  | 0          | 0          | 0          |   0.0 |  0.00
Modify  | 0          | 0          | 0          |   0.0 |  0.00
Other   |            | 4.385e-05  |            |       |100.00

Nlocal:              6 ave           6 max           6 min
Histogram: 1 0 0 0 0 0 0 0 0 0
Nghost:           1718 ave        1718 max        1718 min
Histogram: 1 0 0 0 0 0 0 0 0 0
Neighs:             77 ave          77 max          77 min
Histogram: 1 0 0 0 0 0 0 0 0 0
FullNghs:         2404 ave        2404 max        2404 min
Histogram: 1 0 0 0 0 0 0 0 0 0

Total # of neighbors = 2404
Ave neighs/atom = 400.66667
Neighbor list builds = 0
Dangerous builds = 0
print "${etot} ${pairp} ${ptot} ${numat} " append Summary.dat screen no
Total wall time: 0:00:04
