LAMMPS data file via write_data, version 7 Feb 2024, timestep = 2662, units = metal

8 atoms
1 atom types

0 5.76 xlo xhi
0 5.76 ylo yhi
0 2.88 zlo zhi

Masses

1 51.9961

Atoms # atomic

1 1 2.001472516751875 4.527114929391236 1.0365903757735437 0 -1 0
2 1 3.3107526309873245 4.685927122930909 0.1473141497993779 0 0 1
3 1 4.388135524133821 0.007075898291996594 2.4931018593960115 0 0 0
4 1 4.597999960858356 4.975504406634722 1.0666832255411254 0 0 1
5 1 4.752910313309655 4.203099481662554 2.497514926527459 -1 0 0
6 1 3.1698109170786055 5.58694955386211 1.467737824691034 0 -1 0
7 1 3.7210269502880338 3.102025661861613 0.22846771466308183 0 0 0
8 1 3.452503044415899 3.9940339715176005 1.583429199907139 0 0 -1

Velocities

1 2.0011540874642236e-06 4.580873515234134e-06 -6.923862504332328e-07
2 -4.627672616137492e-06 1.3431624730033518e-06 1.6324337082242623e-06
3 -4.0828871231145946e-06 -5.953277593370278e-07 2.637823647780454e-06
4 -1.4355327700827966e-06 -1.1933098600574407e-06 -4.044670713061593e-06
5 9.140441777705622e-06 2.768826124315312e-06 1.0383699363171394e-06
6 2.05944123726071e-06 2.2872468375305173e-06 -7.142195129972612e-06
7 3.144311441153262e-06 -2.5588878136615665e-05 1.8097881754240833e-05
8 -6.199256034248422e-06 1.6397406805926882e-05 -1.1527256953095027e-05
