LAMMPS data file via write_data, version 7 Feb 2024, timestep = 610, units = metal

8 atoms
1 atom types

0 5.76 xlo xhi
0 5.76 ylo yhi
0 2.88 zlo zhi

Masses

1 51.9961

Atoms # atomic

1 1 4.885514779181636 5.471970282494901 0.33011851573929707 0 0 1
2 1 5.089798543544377 1.9024085181266837 1.3671198814774204 0 0 0
3 1 0.23449352124846712 0.7490880215493643 0.7903214209777979 0 0 0
4 1 1.5859391829335783 0.1656912932474235 1.4517152813343441 0 0 0
5 1 4.522676049749647 0.4119494369720828 1.744208232656076 0 0 0
6 1 5.265320392115329 4.102385431935873 1.120856012221742 0 0 0
7 1 0.6752773511851616 5.012425167238333 0.4584279760828065 0 0 1
8 1 0.12404973627613174 5.38431603108873 1.929205363342228 0 0 0

Velocities

1 -1.905949960574797e-07 4.037637754866462e-08 8.804213488348753e-07
2 -4.580305629324958e-08 -2.5447490912618683e-07 -1.3753108302906588e-07
3 3.634637087872783e-07 -1.0439653406676849e-07 -1.6757853642781123e-07
4 1.9444191268434768e-07 -1.9178222544114986e-07 -2.4590061860860588e-08
5 -1.5802344518334328e-07 -1.4862285017255803e-07 -4.261718227454189e-08
6 -2.896045867541463e-07 2.9475798075582894e-07 1.7217255657724776e-07
7 -2.9048115279351453e-07 1.8751994706456974e-07 -5.175186732541357e-07
8 4.1660161561009316e-07 1.7662221343758996e-07 -1.6275836856569558e-07
