LAMMPS data file via write_data, version 7 Feb 2024, timestep = 50, units = metal

52 atoms
3 atom types

0 32.002005207678906 xlo xhi
0 4.571715029668415 ylo yhi
0 2.2858575148342073 zlo zhi
2.2858575148342073 0 0 xy xz yz

Masses

1 55.845
2 51.9961
3 50.9415

Atoms # atomic

4 2 4.320573503073098 0.6412112031191134 0.23454647683164656 0 0 0
13 1 1.8784140720354723 0.7486766517537742 0.17344630528244354 0 0 1
16 1 2.9737034750298865 4.189099457401387 1.3042366690460305 0 0 0
19 1 6.519255156012092 2.973767603562933 0.05610242296195431 0 0 0
26 1 1.7949403203403604 3.0621085773542704 0.17559657979414406 0 0 0
28 3 5.4477326774604276 1.742692805018723 1.2480716417931557 0 0 0
33 3 5.360676363600303 4.1186160133332 1.3081402763387224 0 -1 0
36 3 4.189078803765102 2.9639286456075955 0.15030477498946215 0 0 0
38 3 3.051314686839437 1.8543367490219194 1.337953344956695 0 0 0
3 2 12.830019170417085 3.306688449683161 1.4832765560350154 0 0 0
5 2 9.591514506139287 2.0584589562450977 1.5255447223376257 0 0 0
9 2 7.881205641938616 3.983407323024137 1.520774864761187 0 0 0
15 1 8.801967833889819 0.42645623584966136 1.7410041202531588 0 0 0
18 1 9.587555526240868 3.715817338564008 0.7584920185204618 0 0 0
23 1 6.8207330096625025 0.7452693377078512 0.01992003386758106 0 0 0
34 3 11.155880844775627 1.8150587624152872 1.9584659704259155 0 0 0
37 3 7.909578706729211 2.092511875425874 0.7196297175820328 0 0 0
43 3 10.633889909141539 0.3303590692633776 0.46676329262574 0 0 0
51 3 11.158254253171418 3.372282568899204 0.3800853364804251 0 0 0
52 3 12.756118943548133 1.6309011666049917 0.43783280903716937 0 0 0
8 2 14.52577579244803 3.105119147057446 0.20036129116617854 0 0 1
10 1 19.426957995221613 0.7263837063849995 2.283630134645922 0 0 -1
14 1 18.174136876418252 4.243167435824736 1.1008748307132599 0 0 0
21 1 16.06520142945622 1.2478539583070478 0.025568475350751824 0 0 1
25 1 17.95971300805153 2.6559717074952416 2.211957953370332 0 0 -1
27 3 19.613304847330877 2.4060297389199548 0.9945468582190159 0 0 0
29 3 16.24630031575729 2.855012542918793 1.1820198218760203 0 0 0
31 3 12.43785892444697 0.07176316753417966 1.4172874834907896 0 1 0
40 3 14.378209250547268 1.4848304322685562 1.332742017672332 0 0 0
42 3 17.77443935526129 1.0436146453553108 1.0673900742641669 0 0 0
47 3 19.92026900790913 4.003250619499513 2.129507818806383 0 0 0
49 3 16.4607806300567 4.430628962216238 0.1062412272599745 0 0 0
2 2 22.54948148333265 1.343791071813572 0.7208874896462534 0 0 0
6 2 26.324357839034906 0.8281252299580326 2.2631639397560894 0 0 -1
7 2 27.610964863149693 4.093333088904744 1.0215983596764946 0 0 0
32 3 21.718419969427444 3.58223091316887 0.892919088355323 0 0 0
35 3 23.939540539513 0.4778702136369263 2.0189987544159167 0 0 0
39 3 21.165558328716074 2.0374942697975724 2.090113067768492 0 0 0
41 3 23.361962651340715 2.824246494802287 2.0949541425761584 0 0 0
45 3 24.84453584553352 1.830853548153873 1.0310652375669367 0 0 0
46 3 24.836920152887075 3.8723251219660715 0.782347669410519 0 0 0
48 3 26.284892382554816 2.910968945632177 2.1583877877698274 0 0 0
50 3 21.055311357768964 0.16920823172934452 1.5331189798264064 0 0 0
1 2 29.069719577664948 0.8391354325650419 0.08061388092963133 0 0 0
11 1 30.043848659743716 4.33289563639822 1.219188878024339 0 -1 0
12 1 30.23522793775041 2.0073080853376117 1.2394970538033336 0 0 0
17 1 32.63912813903963 1.9532540526807163 1.3075397670293036 0 0 0
20 1 27.72848450090346 1.914342830373391 1.1329249824973056 0 0 0
22 1 32.57953428533606 4.258957462219047 1.2802419301862324 0 0 0
24 1 31.478111413860315 0.8201527945929281 0.14366466467238947 0 0 0
30 3 31.377891579785306 3.1558835882273706 0.1258722920403611 0 0 1
44 3 28.961828898703004 3.102334432104796 0.01052073171180806 0 0 0

Velocities

4 -0.00031652786260468694 -0.0010933634970055567 -0.001459690512047574
13 -0.000470699344257858 -0.0011343725599826122 -0.0024557807700623904
16 -0.0009775285234229817 -0.0010095295928878225 0.00013184472368615396
19 0.0010965778083372561 0.0011741674242739806 0.000617468688230703
26 -0.00012504556043564207 -0.0015031351964216175 -0.0013598461425214316
28 -0.0023949605638325516 -0.0007108552822439058 -0.0021119818339907868
33 -0.0003405369077974827 0.0004301390526039941 0.00017474696823259502
36 -0.0007897597034141147 -0.0008576059068787612 0.000495636304132222
38 -0.0014541254902254383 -0.0023355488454518394 -0.0016460447207812367
3 0.0012530849877384644 8.281548363165453e-05 0.003372022966249202
5 -0.0016467614564444762 0.001090617132705718 0.0027705919828123994
9 0.0002391734257578403 0.0002847107693021833 0.0007792893777055367
15 0.0005668221018280806 0.0009711459819379127 -0.00022856533391123112
18 0.0006730184234811458 -0.0010947531694114588 0.002257155968752552
23 -0.0012430008741558926 -0.0006982026754109557 0.00016432443706795895
34 -8.186593875303294e-05 0.0019126926389677918 -0.0019011961352048605
37 -0.0005260628028534222 0.0022098050401218217 -0.0003250175450130059
43 -0.0006080345587019628 -0.0014156255723013027 -0.0002167916315736419
51 -8.438758463437069e-05 4.960391940048433e-05 0.00015942337384717715
52 0.0003040087094586439 -0.00029208836583708635 -0.0007176193667947171
8 0.0001637761374216642 -0.0004375696635386245 -0.00043429570295417145
10 -0.0006654112317338593 -0.00016168298105247926 0.0002272049823218187
14 0.0020495744947105214 0.0008747976165879816 0.0006859980660455973
21 -0.0010038260652296069 -0.0011933946163066767 0.0015579827243828637
25 0.0016691297583217846 -0.001085121499507445 0.0009546193587565747
27 0.0009290659329104759 -0.0009744914391683974 0.0020871539776219105
29 -1.4823983253802866e-05 -0.000740152471698632 0.0007877265460141899
31 0.0017709424739007348 0.0030316612184332504 0.0019288273011918476
40 -0.0027406512274413606 0.0003873030725352718 -0.0010169747422716763
42 5.65895554607325e-06 4.3239827795097765e-05 0.0008596768607578715
47 -0.0006768963585953357 0.0016771191961619041 0.00019377916397171407
49 -0.00018479470156845408 0.0016827603603049813 -0.001414700583462685
2 0.0015504711577663836 -0.003087433789785629 -0.0003630575308451849
6 -0.00023127637048183484 -0.0007316094484881325 -0.0008409091424638302
7 -0.0013821321847428817 -0.0008381603190931955 -0.0017257196393720762
32 -0.0005945176128410444 -0.002060750316206682 0.0011505403451730787
35 -0.0007647458134098705 0.0008511464888940507 0.0004808762580933016
39 0.0016037890976972732 0.0013038977672992494 0.0016291886975313974
41 0.00012068844866319337 -0.0012498461449562195 0.00013069631587138194
45 0.0009410814339372931 0.0004850920989850673 -0.001418937669150616
46 0.0008026816173370157 -0.0013529082612248576 0.002019412378492765
48 0.0009519453592313514 0.001682111736797895 -0.0016336102041049861
50 -0.0012795863696608797 0.0018375555917608155 -0.0004124897481281671
1 0.00281931657203237 0.0022082000401004846 -0.0005343389598512612
11 0.0004052725414282445 0.0005652942549503626 0.0009331835838636722
12 -0.00012253981246614407 0.0006549816465577846 -0.001121900394404219
17 0.0007591957398513451 0.0005257211133348202 0.00047047508951383426
20 -0.0004360150657893487 -0.0011083065048903904 -0.0018281998719454318
22 -0.0004151401245170552 0.0014515867190924817 -0.0008957106233628694
24 0.0019298922756552771 -0.0010014306619221644 0.0003725394615413305
30 -0.0012449229522705897 -0.0003708212718977497 -0.0012121823736938155
44 -0.0001945093070140728 0.001485906250000177 -0.00019567323669587148
