LAMMPS data file via write_data, version 7 Feb 2024, timestep = 25, units = metal

4 atoms
2 atom types

0 2.2858575148342073 xlo xhi
0 2.2858575148342073 ylo yhi
0 9.14343005933683 zlo zhi
0 0 2.2858575148342073 xy xz yz

Masses

1 55.845
2 51.9961

Atoms # atomic

1 2 1.3673741948565938 3.1557534194559187 7.894573566547539 0 1 0
2 2 1.1262178759092218 1.930678755537252 4.115815535330092 0 0 0
3 1 0.14561097739619136 3.078485303642287 6.326460683254361 0 0 0
4 1 0.2931712584784872 2.0058728923490117 7.970524396548215 0 2 0

Velocities

1 0.0010028542284928885 0.0017500381665563657 -0.0005216374211490122
2 0.00017097861623798795 -0.0017218651756350067 -0.00040934254107904717
3 -4.998124653501288e-05 0.000358921533013361 0.001961727172134277
4 -0.0010429497227175811 -0.00038515280981962975 -0.0010949113924940872
