LAMMPS data file via write_data, version 7 Feb 2024, timestep = 30, units = metal

8 atoms
2 atom types

0 4.571715029668415 xlo xhi
0 2.2858575148342073 ylo yhi
0 9.14343005933683 zlo zhi
0 2.2858575148342073 0 xy xz yz

Masses

1 55.845
2 51.9961

Atoms # atomic

1 2 1.4378243356296536 0.16639271653447407 5.234004271833128 0 0 0
2 2 3.007843958539096 0.5180807720614939 8.205203154142598 0 0 0
3 2 5.744930235745703 1.665038773967862 7.638767409273508 0 0 0
4 2 4.238499150358582 1.3221687058701543 4.646958815213734 0 0 0
5 2 2.923003944452521 1.3479939102424896 6.284263742749749 0 0 0
6 2 1.9692510146072375 0.20123667234401885 0.9864012190288256 0 0 0
7 1 4.015454165317972 0.21122925662839417 2.783022164796631 0 0 0
8 1 1.9382865185757212 1.2800676567142935 3.406559316045104 0 0 0

Velocities

1 0.00192941833422846 0.001932624474283612 -0.0004693766132074869
2 0.0009702650507053521 -0.0020704830115953147 -0.0003399005216437676
3 0.0007454631022176812 0.00032599095284264595 0.0024835440703703435
4 -0.000441048116832288 -0.0005631133608941523 -0.001168873943397027
5 -0.0014466063235601513 0.001087814457882131 0.0020289067315029836
6 -0.00037660429438116566 -0.0002896540572137367 -0.0007011209959172025
7 -0.0012066592796969268 -0.00034310441998050453 -0.0013244066620201806
8 -7.90561408674188e-05 -5.0909032897890206e-05 -0.0003824273328543793
