LAMMPS data file via write_data, version 7 Feb 2024, timestep = 60, units = metal

40 atoms
3 atom types

0 2.2858575148342073 xlo xhi
0 2.2858575148342073 ylo yhi
0 70.86158295986043 zlo zhi
0 38.85957775218152 29.7161476928447 xy xz yz

Masses

1 55.845
2 51.9961
3 50.9415

Atoms # atomic

4 2 2.5421528428387674 2.5786538946535504 3.1234990774793685 0 0 0
38 3 1.4790607077404572 1.3561110024060865 1.4168076091479944 0 1 0
39 3 3.650012781588442 3.7956247282175353 4.833233368549697 0 0 0
21 3 5.842956155405228 5.062694808992655 6.843638549618308 0 0 0
8 1 4.712793550872136 3.934322981257067 8.582100938345546 1 1 0
40 3 5.871151029591247 5.047624870072418 10.326427029680838 0 0 0
34 3 7.048034804619512 5.997149945196053 12.14853799251787 0 0 0
16 1 10.507495801471723 9.323531307207297 17.43340439626725 0 0 0
27 3 8.209525612602294 7.079027298293634 13.910052078440497 0 0 0
32 3 9.363667145560084 8.192861633313123 15.66512612816816 1 0 0
24 3 11.64264662131058 8.18344660839962 19.212388332907178 0 0 0
2 2 13.885891914531914 10.510388250626695 22.779811074933587 0 0 0
37 3 12.768892884555852 9.342599079701202 20.991448819304097 0 1 0
11 1 14.763189174873192 11.71899767261235 24.706226546482924 0 0 0
28 3 15.191946098307007 12.930247312335714 26.780588825930057 1 0 0
36 3 16.329054389109004 14.11272043789629 28.566061901097687 1 0 0
29 3 17.473568436278192 13.313584453999889 30.52634207549112 1 1 0
1 2 18.617741830264762 14.485156157921914 32.3339165476971 1 0 0
14 1 19.760275496091822 15.634572653489556 34.135798777196314 1 1 0
19 1 22.04666051066382 17.92130842224835 37.73206116932281 0 0 0
30 3 20.901810439153294 16.778881651584566 35.94350914677936 0 0 0
31 3 23.198507903359122 16.791885270999614 39.50596336806365 0 1 0
25 3 24.366721052275974 17.964057016615364 41.27244462047586 0 1 0
9 1 25.592482170282775 19.59409264720303 43.25405160510359 0 0 0
18 1 26.838104219755284 19.009876996790894 45.22689212880881 0 1 0
3 2 26.919483016703627 21.354940993687023 48.71614745688352 1 1 0
17 1 28.027968379452247 20.187837942224796 46.97385441718768 0 1 0
33 3 28.08979743896939 22.515691119065586 50.43673296868203 1 1 0
5 1 31.617303133678487 23.717172490212178 55.519159844635666 1 1 0
6 1 30.431732524282896 24.838960445962567 53.83909636399432 2 0 0
7 1 32.80060771705106 24.89305956798258 57.18611731762141 1 1 0
10 1 29.259255313982386 23.679171745759803 52.140630513655296 2 1 0
23 3 33.98414570770891 26.070868015291722 58.85723861378451 0 0 0
26 3 36.30034234501853 26.151131546936053 62.19389681113096 0 1 0
13 1 35.15520197802262 27.251389764173318 60.528299445753575 0 1 0
20 1 36.218914404609436 28.534694629458333 65.53421905476537 1 1 0
35 3 35.13781236784862 27.346394036317257 63.84826619974487 1 1 0
12 1 37.26644323836809 29.72371236049914 67.21835246114298 1 0 0
15 1 39.30695129645528 29.856815575458402 70.57292961025729 2 1 0
22 3 38.28702188733315 30.92968263128624 68.89218802771259 1 1 0

Velocities

4 -0.00029468171622543094 -0.0009359284516894609 -0.0014457138666327748
38 -0.0013746592405142139 -0.0021151962567116877 -0.0016226291063471028
39 0.0015283698674651623 0.0013399098785223272 0.0014867114835898341
21 -0.0009974689273616597 -0.0010923682650587204 0.0014889846061021815
8 0.0001599352925587076 -0.00029266336588394345 -0.0004580344997066396
40 -0.002596021563076523 0.0004697413363306733 -0.0010254219555058538
34 -7.190558043461351e-05 0.0019178688706480477 -0.0018648569259007764
16 -0.000922202238324988 -0.0008563407925538731 6.52090132794642e-05
27 0.0008878218956741513 -0.0008230773454520218 0.0019214805068312022
32 -0.0005585910941535694 -0.0018543164622336684 0.0010323069999359931
24 0.0019186198320745923 -0.0009015578788684889 0.0003106650225395166
2 0.0014777525179132196 -0.0028289977107723175 -0.0004046261012078499
37 -0.0004936035674384224 0.002199932324054613 -0.000368512866857195
11 0.00039055900022058235 0.0006387171427692981 0.0008259595082861443
28 -0.0022678403696656216 -0.0005727945414488114 -0.0020649661838696206
36 -0.0007439440383708242 -0.0007121121458749519 0.00041057429962324655
29 -8.259346154952184e-06 -0.0006006078080799218 0.000687869969583771
1 0.0026823300380599035 0.0021984086183897615 -0.0005672320078688079
14 0.0019515759270957301 0.000932543945976983 0.000591294107188629
19 0.001046849179240794 0.001216750466719939 0.0005262357895580181
30 -0.0011760529551899895 -0.00024998348791692605 -0.0012107421859519055
31 0.001687056810041055 0.002980160920900912 0.0017711731856060082
25 0.0016594243138541415 -0.0009847457934508512 0.0008892470294445164
9 0.00022900299414621073 0.0003689817741310691 0.0006536703646423541
18 0.0006447433689439744 -0.0009372477362309007 0.0020828717800262984
3 0.0011954291622147794 0.0001806762535135202 0.0031412699962619396
17 0.0007265557448874711 0.0006011484080316315 0.0003866875178544609
33 -0.00031747468674355974 0.0005104076445066648 0.00010593822959174002
5 -0.0014986080450814982 0.0011072324651485359 0.0024778035282477665
6 -0.00020195263908169187 -0.000562018571752826 -0.0008305128251379607
7 -0.0012561943459613084 -0.0006596245188264972 -0.00164104366398548
10 -0.0006258939024231898 -5.1438195541931176e-05 0.00015573920913815027
23 -0.0012352064641014291 -0.0006001520790379864 0.00010370122374845621
26 -0.00012396927460752046 -0.0014002475223912447 -0.0014113101639035193
13 -0.0004410443061509727 -0.000974860377382724 -0.0023913514670459574
20 -0.0004081168102748551 -0.0009501145859332911 -0.0017955579736498566
35 -0.0007201971191230096 0.0009100907641898945 0.0003965618600818237
12 -0.00011051929443100431 0.0007238618062217726 -0.0011250330510928666
15 0.0005439259641227965 0.0010240122002643233 -0.0002769460266768634
22 -0.00041232057462912064 0.001536718594980385 -0.0009499637723937075
