LAMMPS data file via write_data, version 7 Feb 2024, timestep = 55, units = metal

57 atoms
3 atom types

0 2.2858575148342073 xlo xhi
0 2.2858575148342073 ylo yhi
0 52.57472284118677 zlo zhi
0 48.00300781151836 41.145435267015735 xy xz yz

Masses

1 55.845
2 51.9961
3 50.9415

Atoms # atomic

2 2 1.4630419217247548 1.3130658680111527 0.8719308575625392 0 0 0
41 3 3.7517564839002424 3.6445128999385052 4.043488345597616 1 1 0
44 3 2.580632494549638 2.4436271258605817 2.3434988938872876 1 0 0
50 3 2.5976016615164994 2.5138069941164085 2.434781474974595 0 1 0
42 3 3.7107946243190697 3.5836956845157246 4.002270357416787 1 0 0
20 1 7.168606717779605 4.758371174206529 5.51741321770374 0 1 0
25 1 6.3925353447611 5.7535504177127486 6.3986587767096825 1 1 0
10 2 8.925526040385542 8.777110749743507 9.36234137291663 1 0 0
11 2 10.558025596946646 10.968025953753891 11.239436266412499 1 0 0
33 1 7.97691359822692 6.772832358542681 7.446928081978376 0 0 0
39 3 9.515009855152567 7.838723756351557 8.51076545719744 0 0 0
51 3 10.056677687919796 9.832205679282405 10.62761052923144 1 0 0
52 3 11.803838526700817 12.018031546094331 12.859933702961884 0 0 0
27 1 11.665188042520397 12.168286880701267 12.746576361851389 1 -1 0
53 3 15.280724841345359 13.13894603432945 14.489601962836696 -1 0 0
24 1 15.288309750080645 13.148558433725963 14.500345945814674 0 0 0
40 3 16.446942403474953 14.256128925479473 16.13936258250578 0 0 0
48 3 16.462021522160402 14.268371507670075 16.147562245430752 0 0 0
18 1 17.533197297583953 15.361772370392988 17.682800433629385 0 0 0
28 1 18.08181927717303 16.354709548445047 18.39092913298706 0 0 0
23 1 19.619712534261847 18.24355704017655 20.51482918182427 0 0 0
34 1 18.932666012528646 17.353691661903337 19.58705657122962 0 0 0
45 3 21.667197470723675 18.134368698131603 22.908988642582315 1 1 0
29 1 20.473011268451422 16.958144381623494 21.440423601077942 1 1 0
46 3 21.63575847535063 18.096524284663925 22.913402585467058 1 1 0
12 2 24.013627190942678 22.7200989363993 26.219864935187385 1 0 0
30 1 22.82650551432194 19.26406231530193 24.565295436605318 1 1 0
37 3 22.82670289005886 19.260536297543887 24.563586750352716 1 0 0
22 1 27.48334135349303 23.83339296393925 27.865399280270736 1 0 0
38 3 23.99877936548122 22.6884560973875 26.20946313798282 1 0 0
54 3 27.46139863910337 23.86616642971557 27.866535567625533 0 1 0
13 2 28.645376530995613 24.999648992821793 29.538647926204057 1 1 0
57 3 29.820787381517505 26.181324527034835 31.072148902212323 0 0 0
32 1 28.64497322458071 24.982075391108847 29.521124278683615 0 0 0
36 3 31.04491833214184 25.477802598559304 31.79920004818807 0 1 0
9 2 32.24105499608102 26.643782933023935 33.31089497181435 0 1 0
17 1 32.19659888573109 26.737979137826606 33.32126873581232 1 1 0
49 3 33.39734337612702 27.837871371301258 34.80080173689548 0 1 0
6 2 34.703377687936744 28.963424994786273 35.696981832667994 0 1 0
8 2 35.737995966137156 30.051420245185206 37.01629051337885 0 1 0
31 1 36.324287736494966 31.21933087309434 37.76904477329841 0 1 0
16 1 37.41770790633885 32.409179276232706 39.28193298453792 0 0 0
19 1 38.517349800065055 33.59399246074119 40.99826460619939 1 0 0
35 1 37.39160028339218 32.41063580705572 39.27754293090843 1 1 0
55 3 38.53265555377346 33.58893338189347 40.95276773211731 1 1 0
3 2 40.74957563937808 35.91857133413336 44.41624090244027 1 0 0
14 2 40.749245102748155 35.89909158289369 44.413738584822624 1 1 0
15 2 39.637071510406656 34.770741081621246 42.6960912401512 1 1 0
26 1 39.63672324707815 34.77023855028427 42.69056488186744 1 0 0
43 3 44.13844190841603 36.99661494418494 46.11440478780217 0 0 0
7 2 44.13339493470053 37.003203735265515 46.16771116400442 1 1 0
1 2 48.34229396825292 41.2756794107373 51.908665779589455 1 2 0
4 2 45.233045595096044 38.04189363514738 47.89274220264842 1 1 0
5 2 45.233111338344614 38.042121948178185 47.892545560560805 1 1 0
21 1 47.24549428265966 40.1349044855536 50.34471562653622 1 1 0
47 3 46.31892012770313 39.12635031446659 49.49257657990179 1 1 0
56 3 48.349566273407234 41.28778273841881 51.90665272036774 1 1 0

Velocities

2 0.0015065869310346809 -0.003126177112504194 -0.0003149882905031922
41 7.776537536059186e-05 -0.0012898247628387678 0.00017843363640494356
44 -0.00023722049259290663 0.001444088557005835 -0.0001477165183387055
50 -0.0013215681258425315 0.0017955015069227882 -0.0003643872776003236
42 -3.718679062769016e-05 2.39194914381891e-06 0.0009069241332960245
20 -0.0004785639021617495 -0.0011483802710143722 -0.0017791457081068097
25 0.001625165764839449 -0.001125210851459459 0.001001802807395517
10 -0.0007364443402529864 -0.00021493952324828878 0.0002833929220067825
11 0.00037241366470533677 0.0005379574083858661 0.0010145425324440416
33 -0.00036234784759033 0.00037797055017678704 0.00021428816857343872
39 0.0015598690286515804 0.001262202427216409 0.00167591867542335
51 -0.00012717279815493995 8.751762568730441e-06 0.00020714138297761044
52 0.0002609624014182284 -0.0003327108243310701 -0.0006693117767214809
27 0.0008494203630496754 -0.0009626743531351028 0.002039578681070138
53 -0.0007904031681811019 0.002323705447725632 -0.00013675678484032134
24 0.0018857529878529584 -0.001041576273986304 0.00042011420606436595
40 -0.002781650801163221 0.0003462239016985411 -0.0009684659143153494
48 0.0009084634839338945 0.0016401621471347492 -0.001584686850721213
18 0.000629724053305312 -0.0011348360465946164 0.002303463803550834
28 -0.0023231856763572547 -0.0007110476995918122 -0.0019682725346965918
23 -0.001285007224476385 -0.0007385521286722079 0.00021203915152033317
34 -0.00011546020111285137 0.0017929888920735393 -0.001767088825227341
45 0.0008976068617768675 0.0004439471907062047 -0.0013701586266763198
29 -5.147222956120606e-05 -0.0007390103046711601 0.0007993444887948661
46 0.0007593000827112205 -0.0013928175968970172 0.0020658800334270506
12 -0.0001742173466185616 0.0006308425203307397 -0.001113813549234366
30 -0.001225536101192431 -0.00038650336882760036 -0.0011094619311137412
37 -0.0005685511057680389 0.002167500715277746 -0.00027697387657266837
22 -0.0004577029938059673 0.0014097920969708023 -0.0008472833136840919
38 -0.0014959899146802654 -0.002374797613360037 -0.0015971130084501447
54 0.00037888943216766476 -0.0001684906545073599 0.0016027579225482164
13 -0.0005347901819475355 -0.0012223094423335576 -0.0024952521861879517
57 0.0006089873611619158 -0.0007771144409805491 -0.0004782969096645634
32 -0.000604758887184497 -0.0019994505271601305 0.0011456309132621529
36 -0.0008320707394065594 -0.0008978482033241143 0.0005431282983522817
9 0.00019617070242079198 0.00024370056484994166 0.0008265906897173109
17 0.0007158434380593203 0.00048454889271247036 0.0005179839980437096
49 -0.00022751241766851815 0.0016408103346128471 -0.001365924389315909
6 -0.0002739628398650502 -0.0007719364444666846 -0.0007925186723907847
8 0.00012082409896265213 -0.000478094324061444 -0.0003861785736476741
31 0.0016529466288594623 0.0028609847328398934 0.0018884643110934182
16 -0.0010197133341896764 -0.001049669760547564 0.00017958127221701748
19 0.0010529987056964185 0.0011325592937812853 0.0006648787821640924
35 -0.0007672326273099757 0.0007797996981447134 0.0005064722515833269
55 0.0024913774959944295 -0.0001261566905853552 -0.002362482448669792
3 0.001209400675116276 4.19410007438899e-05 0.0034175813457415732
14 0.0020753416712453302 0.000858495823850788 0.0007585438454247676
15 0.0005397231240780202 0.0009582794003473238 -0.00018862745996354132
26 -0.00016780344214375274 -0.0015429435439275416 -0.0013111068235821094
43 -0.0006504677571355128 -0.0014554927470505324 -0.00016882071664134276
7 -0.0014240450057911188 -0.0008784156875901701 -0.0016767343665798529
1 0.002774579379942255 0.0021658967941974704 -0.0004861545777245885
4 -0.0003591570227454083 -0.0011334473083784969 -0.0014108840739876082
5 -0.0016884963837957778 0.0010490651678448574 0.002816554666712999
21 -0.001045993197804837 -0.0012334111830187879 0.0016047605695939748
47 -0.0007192832655506908 0.001635172962671358 0.0002414740778546825
56 -0.00019604943478312615 0.0009251256397345748 -0.001357834152296616
