LAMMPS data file via write_data, version 7 Feb 2024, timestep = 27, units = metal

19 atoms
3 atom types

0 2.2858575148342073 xlo xhi
0 2.2858575148342073 ylo yhi
0 38.85957775218152 zlo zhi
0 0 32.002005207678906 xy xz yz

Masses

1 55.845
2 51.9961
3 50.9415

Atoms # atomic

2 2 1.5704438689059772 3.1014164057560283 1.3330977578512486 0 0 0
3 2 0.49762413437283753 5.285329834764498 5.068062469193532 0 0 0
4 2 0.4242545035868318 4.227056672219428 3.0634234109129475 0 0 0
18 3 1.6086480250570132 5.987112323300508 7.000025699468287 0 1 0
5 2 2.1378786111399366 9.005691841936194 9.144690142580682 0 0 0
13 3 0.7520054012747321 10.097577357339091 11.069813712425333 1 0 0
9 1 0.7114915877421382 11.249000181336882 13.373089955468506 1 1 0
15 3 1.1812008274706765 15.764325213414567 16.905302659853014 0 0 0
17 3 2.2468085278984904 14.580373078514333 15.286738534017585 0 0 0
19 3 0.09743585976150258 16.992380610006464 18.488675173378205 1 0 0
1 2 1.3257478628185573 18.898100521394852 20.408256723999713 0 0 0
16 3 1.0537670450752192 19.254412039198762 22.590252046683343 1 1 0
6 1 0.7023966882610125 22.06518528895282 24.8190235533535 1 0 0
7 1 1.76450040584958 23.222631395365127 26.65756773675041 0 1 0
8 1 1.1922107228095593 25.96864737792557 30.63178922422222 1 1 0
10 1 0.3512055639315206 24.623263876361346 28.667114193024364 1 1 0
11 1 0.020771556069352774 27.1422961599281 32.43304335833667 1 1 0
12 3 1.6181282092132576 33.315010663115686 37.918041995271714 1 1 0
14 3 1.1410999698252664 29.949661313214516 34.52261273158097 1 1 0

Velocities

2 0.0012144284008091223 -0.0029354859169231583 -0.0005081737197163263
3 0.0009258416426733978 0.00014095829099592026 0.0031163888210744744
4 -0.0005973276559062191 -0.0010004185221141437 -0.0015723582340136835
18 0.0003880390779023038 -0.0010601050736508543 0.0021378369329634983
5 -0.001888200733068546 0.0011189399191355771 0.0025327536851967275
13 -0.0007740268906774468 -0.0011003600620555754 -0.0026507075407950567
9 -6.202489118269528e-05 0.0003334414088011769 0.0005736012736087908
15 0.0002801390916798833 0.0010389364609113103 -0.00038776178962142573
17 0.00047559890204957727 0.0005863658215777785 0.00032249305614330445
19 0.0008183934543905598 0.001245214894005093 0.000471844813618949
1 0.0024457297240819045 0.0022034544685602345 -0.0006743870722776687
16 -0.0012889869250531667 -0.0009735142898121533 -2.1569819468030562e-05
6 -0.0005025413648761107 -0.0006182133736279901 -0.0009435088293036271
7 -0.0015801716435585136 -0.0007179847289629874 -0.0017720214635962039
8 -0.00013262487411259952 -0.0003428824664262841 -0.0005627669946575952
10 -0.0009358878534265168 -9.630566544742043e-05 6.462341173036811e-05
11 0.00010311526852891548 0.0006091609127624327 0.00074971268778187
12 -0.00042028197655267417 0.0007177000291732636 -0.0012954282626100062
14 0.0017866786805551674 0.0009410424177656999 0.0005414735804816543
