LAMMPS data file via write_data, version 7 Feb 2024, timestep = 56, units = metal

39 atoms
3 atom types

0 2.2858575148342073 xlo xhi
0 4.571715029668415 ylo yhi
0 22.858575148342073 zlo zhi
0 6.857572544502622 2.2858575148342073 xy xz yz

Masses

1 55.845
2 51.9961
3 50.9415

Atoms # atomic

1 2 3.023761164658217 1.5673961313061118 7.687513176046771 1 0 0
2 2 0.39315799198684415 1.2678174333278134 0.05737674680814685 1 0 0
3 2 2.985570686267969 3.7511415913895756 4.895874016778089 1 0 0
4 2 1.385335021911708 1.7058280132795975 1.7690487822966436 1 0 0
9 2 4.1605468511302295 4.969262957225373 6.437567842581825 1 0 0
10 1 3.0255348603082854 3.865213385357026 7.6640677494287095 1 0 0
15 1 0.4930395020621522 3.0988643217583554 1.2753185459384506 1 0 0
16 1 1.7629747800427136 0.8260265653303625 3.881963110547313 1 0 0
20 1 4.1589873875500825 2.7109225082594217 6.493894141649152 0 0 0
21 1 2.9615927028232942 3.836814228184346 4.9439244959288695 0 0 0
23 1 2.8746737923513055 0.3474669254402496 2.223332445524719 0 0 0
27 3 2.353646482088199 2.255309990322982 3.5032033012789774 1 0 0
32 3 1.7086526084020415 3.541460241793976 2.979144156342627 1 0 0
33 3 3.1496589968915405 1.5728131882398486 5.266686499368195 0 0 0
39 3 1.8245442193097507 4.471748808125993 0.3773939563285973 0 0 0
6 2 5.336332841294936 1.465641867633838 12.410892750595972 1 1 0
7 2 3.07750750503078 3.87712325616645 10.080087145512591 2 0 0
11 1 4.180587904636331 5.016547697735603 8.8854436258432 1 0 0
13 1 5.318654288134242 4.149403309281044 12.81023295539727 1 0 0
14 1 5.443355082159615 4.613456335622593 15.564870629906814 1 0 0
17 1 4.312179265385877 2.8612608168730214 11.375333821620949 1 0 0
19 1 4.316173791219661 5.526124333519887 14.138761479668576 2 0 0
22 1 5.416820536315516 2.207573690985715 15.450451043441076 2 1 0
25 3 4.345559566951357 3.392287463019359 14.406754986227593 1 0 0
26 3 5.7866089202302105 2.484183909037442 13.190993640564956 0 0 0
28 3 4.185014140038039 4.97248319216469 11.282197245856635 1 0 0
29 3 4.1837126610927635 2.721435060085505 8.914893990326176 1 0 0
38 3 3.076495617114834 1.6155258761701994 10.148545823566174 1 0 0
5 2 8.404219077324955 3.527381060672762 21.26709260497033 1 0 0
8 2 6.976114859365793 2.6552281283121517 19.893949589412678 1 0 0
12 1 7.673382624420329 6.406590258555463 21.347119655937206 2 0 0
18 1 6.519430914077597 5.755432817171662 16.783047408160932 1 0 0
24 3 6.225318315899234 3.77532254620838 19.021750999862952 2 0 0
30 3 7.537655841961229 4.721320191444031 17.967778289539133 1 0 0
31 3 7.615272021722709 2.4528387335030826 17.850405952371133 0 0 0
34 3 6.523099858749223 3.4816767122301036 16.707967477208356 1 0 0
35 3 8.486269479826028 5.117609189550345 22.297553024809336 1 0 0
36 3 6.227843146322737 5.954160538159765 19.128223229090942 2 0 0
37 3 7.24887315727975 4.93214011296514 20.348073580369025 1 0 0

Velocities

1 0.0026427266856705774 0.002230398375295798 -0.0005985127442604138
2 0.0014272508511491706 -0.0028424929921874427 -0.0004344356742576708
3 0.0011423731985007474 0.00019441074559127297 0.0031435416216107274
4 -0.00036121933349419534 -0.000932296347300394 -0.0014849425941741202
9 0.0001711083083311091 0.0003878140066010347 0.0006598623752701888
10 -0.0006954281342473073 -3.980373953027901e-05 0.00013099949437034042
15 0.0004849755797092323 0.0010453767037921287 -0.0003056004249302484
16 -0.0009944172950379143 -0.0008519886254746918 3.965023413566212e-05
20 -0.00047568072207045613 -0.0009466108294074088 -0.0018379518864919805
21 -0.0010196087219949644 -0.001028120004653465 0.0014058026882092726
23 -0.0012487234724662408 -0.0005537565945475214 7.07638010713186e-05
27 0.0008319828809412852 -0.0008184242301170081 0.0019127161887853464
32 -0.0006275164094484004 -0.0018589933965652216 0.0010154979589480726
33 -0.00038421852150691103 0.0005271253537689957 8.074794462633935e-05
39 0.0014783261569380562 0.0013641324398756527 0.0014740136291659304
6 -0.0002795536495841009 -0.0005857582276291514 -0.0008921881158705593
7 -0.0013820027072275586 -0.0006878274055696268 -0.0017397821293186014
11 0.0003302210410271902 0.0006565957214866385 0.0008072835556243602
13 -0.0005089061267117867 -0.0009715805063354902 -0.0024391357716933796
14 0.0019053611380004138 0.0009530808981236127 0.0005704950389354799
17 0.0006692576881420488 0.0006186870867633056 0.00036403728859555755
19 0.000992448950556547 0.0012398587535948024 0.0005048481116169325
22 -0.00045568381277145823 0.0015056093683589518 -0.0009446845626243206
25 0.0016105663074706578 -0.0009815553598787766 0.000871143665337678
26 -0.0001889623853374263 -0.0014008163059633537 -0.001450227626821603
28 -0.002352229974836151 -0.0005658770133757266 -0.002109797544963102
29 -7.220558098400334e-05 -0.0005939419182106589 0.0006679446633690038
38 -0.0014509678641154735 -0.002122233479166407 -0.0016634584597243441
5 -0.0016355012668187276 0.0011598227151407498 0.002567407745662752
8 9.88823453172618e-05 -0.0003040862059820152 -0.0005026774598372328
12 -0.00017539071759008475 0.0007425107241610518 -0.0011613604457741476
18 0.0005867051215691713 -0.0009336275679583906 0.002075567636027525
24 0.00187210687546569 -0.0008976148095962348 0.00028732698611201173
30 -0.0012505647050342194 -0.00024014535383369621 -0.0012478450268629696
31 0.0016384488063559172 0.0030192235163859827 0.0017610489746415672
34 -0.00013642764924557608 0.0019473204676479267 -0.00190787781521792
35 -0.0007905845514136418 0.0009304245730520648 0.00037400096810843135
36 -0.0008145463189273964 -0.000706455082176783 0.000388140184024745
37 -0.0005619409135202043 0.0022319358665602246 -0.00039799570843937785
