LAMMPS data file via write_data, version 7 Feb 2024, timestep = 27, units = metal

9 atoms
2 atom types

0 2.2858575148342073 xlo xhi
0 2.2858575148342073 ylo yhi
0 20.572717633507864 zlo zhi
0 2.2858575148342073 2.2858575148342073 xy xz yz

Masses

1 55.845
2 51.9961

Atoms # atomic

2 2 0.9314631495547774 0.7693016517500612 3.1527294557881547 0 0 0
5 1 0.9532515257780773 0.7173797117292893 5.885272983478546 1 1 0
8 1 1.4456993157673494 2.0579139569899727 1.3905043870001181 0 0 0
9 1 2.092655913888623 1.8792397544699957 4.516088041194373 0 0 0
1 2 1.5592090754308463 3.057100120608587 9.041999710642209 1 0 0
3 2 1.2217145140292571 1.8479347174910645 10.914274881446445 1 1 0
7 1 2.1880452705784985 3.4802462266996743 12.75436019108158 1 0 0
4 1 3.7629147451188425 3.0689744177760008 17.305731153273147 0 1 0
6 1 2.013401122786392 1.9299959057232863 15.50072855640219 1 1 0

Velocities

2 0.0010435506154215088 -0.0022615059704568924 -0.00042127761255238995
5 -0.0014723325972814893 0.0010657439414187271 0.0020152068667502535
8 -7.038506693558342e-05 -0.00011757183846912028 -0.0004664231150399176
9 -1.2002936381769952e-05 0.000441709157666444 0.0004732881687575423
1 0.0020617660826655654 0.00198810254278362 -0.0005587265076697995
3 0.0008049059431372444 0.0002825366756522646 0.0025760274104106996
7 -0.0012674230968236298 -0.0004277598633613003 -0.0014664071001415974
4 -0.0004422972597193511 -0.0006253704880855687 -0.0012604136541528495
6 -0.00037628475644692675 -0.0003452546834594584 -0.0007812747421242025
