LAMMPS data file via write_data, version 7 Feb 2024, timestep = 52, units = metal

53 atoms
3 atom types

0 2.2858575148342073 xlo xhi
0 2.2858575148342073 ylo yhi
0 64.00401041535781 zlo zhi
0 16.001002603839453 54.860580356020975 xy xz yz

Masses

1 55.845
2 51.9961
3 50.9415

Atoms # atomic

10 2 1.6022764569189423 2.016108313107599 0.8664027684685462 0 0 0
21 1 2.816243902906308 3.1189149966836527 2.486596270102358 0 0 0
29 1 1.8574993098545731 4.139872281635697 3.717385268294211 0 0 0
36 3 1.6028705200036293 2.0181432332828257 0.8683401978964996 0 0 0
47 3 3.1710051374896358 5.117078940721127 4.9762776654441465 0 0 0
3 2 3.7909679659849225 9.218231307123208 9.925233579281606 0 1 0
6 2 2.188129063616545 6.091241372541031 6.256462257159967 0 0 0
17 1 5.0679798074786335 10.274216670416628 11.13686013946931 0 0 0
19 1 3.492376880430151 7.096484584776442 7.513225365938631 0 0 0
46 3 2.502044776761766 8.14022722257353 8.728231534785925 1 1 0
22 1 4.039856704484448 11.324865622668858 12.376088625970066 0 0 0
5 2 4.314710941371862 13.548098395789328 15.30291638448352 0 0 0
20 1 5.5693187051310655 14.690485134197136 16.7505066572137 0 1 0
30 1 4.209327340667618 13.566365427868574 15.033971390149743 1 1 0
38 3 5.313644712696442 12.421314251278304 13.566674747120327 0 0 0
33 1 4.58321097985529 15.763366965686691 17.986139628877304 0 1 0
27 1 5.777725001123347 16.788587936739024 19.200072820751863 0 0 0
28 1 6.853367964045241 17.786285673769303 20.413365311231324 0 0 0
41 3 5.566847199425091 18.8126904976864 21.604409946292254 1 1 0
24 1 6.5076864954082865 19.8196619717164 22.80951349141408 0 1 0
7 2 7.011818519571904 25.134006225440142 26.66940959138816 1 0 0
11 2 8.351517885022314 21.786845074822118 25.340876220182142 0 1 0
25 1 7.427533604906702 20.79700674299604 24.067389501132556 0 1 0
43 3 8.076868637463196 26.258735921333923 28.282516772116477 0 0 0
52 3 8.100483182425139 26.258615268463643 28.29125576403304 1 0 0
2 2 7.95839738222167 28.71157706512408 31.24443627639637 1 1 0
37 3 9.184916835569199 27.430631378585883 29.92172913665762 0 0 0
50 3 9.045364526029465 30.018024969700328 32.56451825519064 1 0 0
26 1 10.148504618044742 29.0523344222352 33.88903149777674 0 1 0
31 1 9.943524257950967 34.47698833431352 38.79920903111731 1 1 0
32 1 10.989328142314788 35.78920019521706 39.96000768085514 1 1 0
35 3 11.168684286319724 33.16066428658157 37.575960951241484 0 1 0
42 3 8.9759226684078 30.40522224517406 35.184169233661216 1 1 0
49 3 10.08932917346279 31.80460249836154 36.41161377578008 1 1 0
16 1 12.044163686883403 37.10770496832107 41.17680770634174 0 0 0
40 3 11.868579277147877 37.60842575098623 43.51894928991045 0 1 0
4 2 11.703645089747319 40.633958810374644 45.76004072594983 1 1 0
8 2 10.820655538339016 38.461237237190964 42.355867176088985 1 0 0
13 2 12.93714427776233 39.143192881227094 44.636208846273526 1 1 0
14 1 12.765830352663832 42.04977795766582 46.94714692707446 1 0 0
12 2 12.687155358096783 42.53557740677467 49.32257579711429 1 1 0
15 1 13.850509847062508 43.44456859541883 48.12249477928725 1 0 0
44 3 13.853076721780829 43.89845449702919 50.50861299712709 1 1 0
1 2 15.081395767724828 45.22316230400578 51.72324974615701 0 1 0
53 3 14.07901792538732 46.46529129636472 53.04851666746779 1 1 0
18 1 15.398062005670056 47.63977138151559 54.3970485446685 1 0 0
23 1 15.793498943902417 49.89664288782851 57.13608416353142 1 1 0
34 3 14.452399842856433 48.77719015653848 55.76250636723309 1 1 0
9 2 16.3756644196761 55.748404544417255 63.24901144316869 2 1 0
39 3 14.855223833120833 50.99859977525439 58.52189835373304 1 1 0
45 3 16.64218055745926 54.342492105979154 62.55030208839664 1 1 0
48 3 17.563266300315934 53.21112743293886 61.17177568753358 0 2 0
51 3 16.193968010416548 52.114114559035706 59.875605214189655 1 1 0

Velocities

10 -0.0006784117009267185 -0.00021613778918220768 0.0002344973247697757
21 -0.0009874737518818977 -0.0012330077673105243 0.0015537869466373416
29 5.483200355671737e-06 -0.0007393843998569225 0.0007496374893505893
36 -0.000773887714896214 -0.000897972504866711 0.000493824232818561
47 -0.0006612776142883982 0.0016310651496958086 0.00019264440355475098
3 0.0012643732153128822 4.0338756146877716e-05 0.0033637568218984324
6 -0.00021665751398134512 -0.0007722587589345914 -0.0008397222560770698
17 0.0007715921624122322 0.0004822505885555772 0.0004687194752540833
19 0.0011082172087146876 0.0011292419074011627 0.0006153832478614791
46 0.0008149804657319981 -0.0013921634934800625 0.00201418123901082
22 -0.00040010871218287006 0.0014060387252716779 -0.0008944007727151068
5 -0.0016289665164750773 0.0010458790870415365 0.002763675336964389
20 -0.0004209368139959938 -0.001148110577682641 -0.0018247976900419537
30 -0.0011667343002627702 -0.0003874318278805026 -0.0011561670795276844
38 -0.0014367627892911893 -0.002372599216245491 -0.0016430512609265648
33 -0.00030490352457012175 0.0003758398545861765 0.00016550124771824379
27 0.0009049590199878254 -0.0009626967069670396 0.001987921249015668
28 -0.002262657676021626 -0.0007114657696793735 -0.0020136270896358175
41 0.0001345175620185168 -0.0012893326293009007 0.00012970310155265054
24 0.0019396618744146638 -0.0010414745440924461 0.00037100359649130656
7 -0.0013649310233046564 -0.0008785705493387517 -0.001722547403920026
11 0.00042870247788456297 0.0005355751122609396 0.0009644971055603364
25 0.0016794844593396318 -0.0011249775951101468 0.0009517774154175856
43 -0.0005925703273789131 -0.001454740078654907 -0.00021700514800896206
52 0.0003174264864773272 -0.00033372387928821745 -0.0007167091195772928
2 0.0015610921064638462 -0.003122797071562305 -0.00036294285399231826
37 -0.0005107825008004509 0.0021625557463727267 -0.000324988222764972
50 -0.0012626153018289506 0.0017911415560663444 -0.0004122641546364033
26 -0.00011066506598009548 -0.0015420533475657638 -0.0013574948586827775
31 0.0017072216342697445 0.002854949168424021 0.0018370445264098297
32 -0.0005469333406827559 -0.001997842413075697 0.0010953793325291525
35 -0.000748929951377034 0.000806945770511267 0.00047909730555898295
42 1.9746173543507988e-05 8.519006710737766e-07 0.0008570479506054424
49 -0.00017028014122884034 0.001636693656122914 -0.0014122262165306113
16 -0.000961235216834604 -0.0010495553025736246 0.00013084893255533726
40 -0.00272040180366784 0.0003441431319193958 -0.001015392797649023
4 -0.00030171771772008325 -0.0011332010991092704 -0.0014571151961405779
8 0.00017750857007202195 -0.00047887874420056724 -0.0004340211809831651
13 -0.0004770746705062992 -0.001221923485583608 -0.002539777995795386
14 0.002059075548982062 0.0008305438295035671 0.0006837588585853802
12 -0.00011706888374021425 0.0006283141500591181 -0.0011605118541521838
15 0.00057965017480877 0.0009266760071638652 -0.00022875243236325136
44 -0.00017997294891899785 0.0014402812495786978 -0.00019593413885466291
1 0.0028270904692244392 0.002160954347670885 -0.000533839959545896
53 -0.0007322856714478585 0.0023185148261802234 -0.00018499164098947403
18 0.000685608211802388 -0.001134587653350524 0.0022513913771739715
23 -0.0012261118973248702 -0.0007389269444004414 0.00016325576754247043
34 -6.758233128271843e-05 0.001866110009809565 -0.0018976301633559216
9 0.0002527366810120814 0.00024178102660330923 0.0007768408420117025
39 0.001614290410921858 0.00125868115983001 0.0016248331469161732
45 0.000953069739060599 0.00044171273810582855 -0.001416453794991696
48 0.0009639092877406782 0.0016360464880055166 -0.001630644644977246
51 -7.00983190629023e-05 7.201712446638795e-06 0.00015836570138978208
