LAMMPS data file via write_data, version 7 Feb 2024, timestep = 35, units = metal

4 atoms
2 atom types

0 2.2858575148342073 xlo xhi
0 9.14343005933683 ylo yhi
0 2.2858575148342073 zlo zhi

Masses

1 55.845
2 51.9961

Atoms # atomic

1 2 1.5291329690022877 1.4378925395506545 1.3918422135470148 0 0 0
2 1 0.77528220607311 5.630792606263619 0.2993065269643469 1 0 0
3 1 1.8364561714025098 4.2471563535848595 1.4300798093692983 0 0 0
4 1 0.4652053119411059 2.8734340984700832 0.24932956049950372 1 0 0

Velocities

1 0.0010102058002587387 0.0017645817939809065 -0.0005175662209525573
2 0.0001437887304237137 -0.0016388308950030888 -0.000396849425352473
3 -4.4716627583433264e-05 0.00037070765953466306 0.001970720950311565
4 -0.0010396533869450957 -0.0003748416032460629 -0.0010919765481255124
