LAMMPS data file via write_data, version 7 Feb 2024, timestep = 27, units = metal

48 atoms
3 atom types

0 2.2858575148342073 xlo xhi
0 2.2858575148342073 ylo yhi
0 80.00501301919725 zlo zhi
0 29.7161476928447 9.14343005933683 xy xz yz

Masses

1 55.845
2 51.9961
3 50.9415

Atoms # atomic

22 1 3.294080736175677 1.260309584374229 4.3651734180520085 0 0 0
30 3 1.9294115137520986 2.068922426323629 2.7548829918536804 0 0 0
32 3 2.1511365298419687 0.6791338605428494 0.9205382700335027 0 0 0
42 3 2.3436303442965953 2.402499488326828 5.905284686198862 1 0 0
7 1 3.7519509206404527 1.134533907477024 7.420220884549331 0 1 0
16 1 5.282844918813328 2.4220802337365575 11.968417128557585 0 0 0
19 1 5.0952319367227386 2.2360111582327935 8.926405508081452 -1 0 0
48 3 4.071275516765164 3.4360959715710395 10.43380658762102 1 0 0
11 1 6.4647993945573035 3.7188905379996617 13.553390856521526 0 0 0
2 2 7.603499797620632 3.0819425908785405 15.274855107190593 0 0 0
38 3 8.025508978923293 1.9639519759993809 17.045590161137664 0 1 0
4 2 9.752051055008547 3.17102003264641 20.380489370756855 0 1 0
9 1 8.673375590384047 4.287996546769562 21.80355705694811 1 0 0
12 1 11.038682179521116 4.38738364348428 24.54757845901285 0 0 0
28 3 9.880495110206553 3.200615336071938 23.164464272826596 0 1 0
44 3 8.644267616104681 2.930540979186746 18.713608049455367 0 0 0
17 1 9.85862423219435 3.20174943672317 26.013986532735366 1 0 0
34 3 11.894354787965991 4.714547929545474 29.185701850082275 0 0 0
45 3 13.060880405013512 5.671474273507436 30.76962977808636 0 0 0
47 3 10.937472096128602 4.199402513735408 27.52618936356824 1 0 0
14 1 12.217061869199668 5.996547388348355 32.64242187606222 1 0 0
8 1 13.41147773220982 4.806255467250738 34.35704476515951 1 1 0
13 1 13.803674027527698 5.910776425427102 36.36984459605702 1 0 0
6 1 16.603691792945618 4.94750798665824 40.63855015464351 0 1 0
39 3 15.37808017406578 4.749671093875762 38.35968415135728 0 1 0
15 1 17.82892955469913 7.138666160290256 43.62871398845803 0 0 0
26 3 18.22646125803057 6.091451988990585 45.69168368023571 1 1 0
25 3 19.32244058498579 7.326841238795923 47.415542175802585 0 0 0
23 1 20.64369789678771 7.955144912985359 50.954453585191175 0 0 0
27 3 20.50328243740881 7.926234141894691 53.98738182230861 1 0 0
31 3 19.707355004716295 6.526887580831555 49.31399455890837 1 1 0
36 3 21.700768161773908 6.898181295922539 52.50096621524744 0 1 0
1 2 22.6675689652923 7.301762379733831 56.898803234341784 1 1 0
3 2 23.73108228999103 8.176827101538395 58.2735314055265 0 1 0
10 1 23.596187724248182 7.841145468998079 61.172412888087976 1 1 0
29 3 22.508842043786505 9.105430814526041 59.68643998522307 1 0 0
41 3 21.59218645474582 6.461652055821055 55.468208518418116 1 1 0
20 1 25.070911916516547 7.989036111984443 64.51334404353737 1 1 0
46 3 24.666890695710343 8.956959014053284 62.73314631886481 1 1 0
33 3 27.08975239040018 8.360297305575944 67.84343815100515 1 1 0
35 3 26.103831337357015 9.247026562595908 66.15417046210861 0 1 0
37 3 25.967742682848144 9.63884473292852 69.5123968151966 1 1 0
40 3 28.35370772984128 9.59458059047009 72.79322866348134 1 1 0
43 3 27.167527619120975 8.542763416331708 71.15457485645774 1 1 0
5 1 29.579927828068026 10.058107575035882 77.67912812204345 1 1 0
18 1 29.53042788861001 10.5390464536111 74.44620093723219 1 1 0
21 1 28.42994454452318 9.146263460500196 76.073244297118 1 1 0
24 1 30.712234350712038 11.02362116632795 79.2919145521788 1 1 0

Velocities

22 -0.00042882147597228 0.0014875953249522433 -0.0009273112695413548
30 -0.0012437596729981276 -0.0003022101913221931 -0.0012381214104580328
32 -0.0006049899408193211 -0.0019619067798852348 0.0010823327230629223
42 -1.555039811064186e-05 0.00010444344714338271 0.000796672721865127
7 -0.001326666647420007 -0.0007259874448101181 -0.0016832720784171645
16 -0.0009811488711696876 -0.0009294921621267995 8.186134027930371e-05
19 0.0010558521583896195 0.0012151389997814334 0.0005587975998183205
48 0.000913807151716129 0.001713996301225521 -0.001652009990463455
11 0.0003769141893616111 0.0006171584363979446 0.0008688644259996843
2 0.0015016254564792057 -0.0029702231138587993 -0.0004041872226967317
38 -0.0014492196239538672 -0.0022317892243974755 -0.0016642220563945678
4 -0.0003319733655515426 -0.001011826296295742 -0.0014812016831184198
9 0.00020978307852865058 0.0003381148224409839 0.0006906297898426692
12 -0.0001414557185999237 0.0007052413404637937 -0.0011494545557517528
28 -0.0023732233667883677 -0.0006361610686489437 -0.0021218236580020696
44 -0.00021213769485452425 0.0015213008870646918 -0.0002397973964408886
17 0.0007245057802714827 0.0005782932495078663 0.00041443368397666043
34 -0.00010150949146534003 0.0019404521622026086 -0.001914808868611347
45 0.0009031375796357664 0.000538391079212581 -0.0014411778995411715
47 -0.0006858949490851622 0.0017090930760340721 0.00014268778716633308
14 0.0019917999454355513 0.0009211248515493043 0.0006261010022651606
8 0.0001383319330745788 -0.00034636290088818156 -0.00045943868122067547
13 -0.00048338675359595873 -0.0010521017162326892 -0.002459472107368168
6 -0.0002360443187390459 -0.0006250132331128061 -0.000844770788662598
39 0.0015539895502916143 0.0013425484957465138 0.0015524181625704036
15 0.0005355736639605055 0.0010157495660149335 -0.00027210106133312696
26 -0.0001553698415236337 -0.0014921684634052286 -0.0014456107497100978
25 0.0016895665290546672 -0.0010623282661992163 0.0009343359239036
23 -0.001241871980434551 -0.0006237348141456584 0.0001137599987932955
27 0.0008913370332570637 -0.0008950808332053193 0.0020021905453850714
31 0.001718152589672435 0.0030394026419888797 0.0018466962980766247
36 -0.0007967391937002624 -0.0007802863571610216 0.0004391447700467373
1 0.0027477715077368126 0.0022306730014779183 -0.000572404464931205
3 0.0012095594590674605 0.00014331110327561898 0.0032640735128129776
10 -0.000674615288595629 -9.68133381094928e-05 0.00017551562504060475
29 -3.566690167887411e-05 -0.0006649341378829709 0.00072600958229233
41 9.742124289023295e-05 -0.0011655095043852464 8.073347722560035e-05
20 -0.00044932296917565135 -0.0010265019770841453 -0.0018431184923097391
46 0.0007672137050548878 -0.0012667278622548782 0.0019356608284380355
33 -0.00035555289425147926 0.0004844211306416865 0.00012399607318730195
35 -0.0007721727966396616 0.0008978968372835703 0.0004246487779574082
37 -0.0005377597721978637 0.002232249288404892 -0.0003668277637731341
40 -0.0027127297011056506 0.00044235147675459946 -0.001046406000261456
43 -0.0006182650715170904 -0.0013283231745479984 -0.0002605379879187373
5 -0.0015774457536850725 0.00110184166281701 0.002577711609631342
18 0.0006398701569754605 -0.001013191107770557 0.002169151238603899
21 -0.0010069759557866623 -0.0011100678810612749 0.0014824860484867258
24 0.0018742588147315266 -0.0009215381192396278 0.00031825010266469295
