LAMMPS data file via write_data, version 7 Feb 2024, timestep = 67, units = metal

51 atoms
3 atom types

0 13.715145089005244 xlo xhi
0 4.571715029668415 ylo yhi
0 6.857572544502622 zlo zhi
2.2858575148342073 4.571715029668415 0 xy xz yz

Masses

1 55.845
2 51.9961
3 50.9415

Atoms # atomic

3 2 4.754911202903713 1.5843221373101437 2.966278058317879 0 0 0
4 2 6.029426230615723 1.382669149557115 0.9155130064763878 0 0 0
7 2 2.7283205111507436 1.3221890956807227 3.00464202159133 0 1 0
12 1 1.5612441952163603 0.4770709520803803 1.4367612868980282 0 1 0
19 1 3.716409464483725 1.1449048287423351 1.0553340651494032 0 0 0
20 1 5.977303127980127 2.7062349246447988 4.485128797282714 0 1 0
23 1 4.173655366871912 3.683637165264575 3.3170517860624424 0 0 0
26 1 3.786082830658936 0.13817578673812322 4.515017305685868 0 1 0
27 1 4.703939141920102 3.068882510352138 1.1196638588783927 0 0 0
35 3 9.19910584214152 0.8486817531706002 5.98477926330452 0 0 -1
38 3 5.715833017701345 0.6426115071463762 4.962229817848937 0 1 0
48 3 6.601692758023935 3.6980602759481345 0.44717631381924083 0 0 0
1 2 11.90070526356502 2.6465950249923713 2.3094585366815896 0 0 0
2 2 10.460250115446174 4.124400043685334 2.5270005277668117 0 0 0
5 2 10.228896703825141 0.3514819676591302 1.9193660694443606 0 1 0
6 2 12.496366188827096 2.1016023321547137 6.849037973408894 0 1 0
8 2 8.008621653228927 3.004721739674299 6.001241720432563 0 1 0
9 2 6.527467838574382 0.9232649000809601 2.990955488145923 0 1 0
11 2 9.86189440576944 4.039048376048519 4.53061695360474 0 0 0
13 1 7.966010379086615 3.447379298018377 3.668262772731186 0 0 0
14 1 9.752062114927107 0.18578269465334454 4.0204796911239296 0 1 0
16 1 11.483591920068267 0.7349141740979941 5.357450492044978 0 1 0
25 1 9.911692062393929 2.125228304250567 3.4008792369705234 0 1 0
28 3 10.189036437263425 2.5476998308612617 5.881134078112716 0 1 0
29 3 10.027361753297892 2.506458700025084 1.0417335242866992 0 0 0
32 3 7.107504094513852 0.18890645352072055 6.396275598875676 0 1 0
36 3 6.237467084363685 3.8972613156574165 2.504261371171014 0 0 0
37 3 7.85274059622549 0.06118317122744937 0.4380139310910296 0 1 0
39 3 8.226859404156633 1.7103386403459113 2.108850365349029 0 0 0
40 3 7.9144098583201465 1.5112867801503145 4.4760488379345045 0 1 0
41 3 13.429943212039811 1.5933037656737046 4.972082613315969 0 1 0
42 3 12.058305431398468 0.7565462178367554 3.2720383521606866 0 1 0
43 3 12.907963967511586 3.7539224090176617 5.970390268256747 0 0 0
44 3 11.82547984332905 1.2842357354541696 0.4303907955090705 0 0 0
45 3 11.677801459956846 2.7084327699432516 4.484035013992815 0 1 0
46 3 14.387460773373858 0.8713112910820251 6.6627058475044585 0 0 -1
47 3 13.67860954198344 2.0086066784693286 1.3578310413178107 0 0 0
49 3 13.58995116946103 3.276245135888353 3.5633175362362044 0 0 0
50 3 8.352017465354942 3.8600752135873466 1.5287776155562718 0 0 0
10 2 2.6766766504957493 3.0513541370931065 1.4796535594171816 0 0 0
15 1 17.7422263197313 2.1043134452543883 5.49201581241508 -1 1 0
17 1 15.736405632223295 1.4191491704643304 4.98805745660192 0 1 0
18 1 15.587217982041746 3.2839354731726735 3.4387887684889114 0 0 0
21 1 18.55239178281135 3.9994881483189006 6.135342232013936 -1 1 0
22 1 14.248123422600939 1.0112216548355626 3.204075753525217 0 1 0
24 1 6.05638237666942 2.158250749495557 6.682005026514775 1 0 -1
30 3 16.685590372147544 4.101793421730029 4.9760748845136415 0 0 0
31 3 14.504399013950467 3.989254600577666 1.5097425545692618 0 0 0
33 3 18.306975891111023 0.18862643057371822 6.764703097675527 0 1 -1
34 3 14.866326108143703 3.2129485952871586 5.634718677539268 0 0 0
51 3 12.093868866286103 3.3798807669226782 0.29026033867557505 -1 1 1

Velocities

3 0.001247283158981927 7.786759217764913e-05 0.003329103256979101
4 -0.0003090981101114406 -0.0010883963907942545 -0.0014618796618999287
7 -0.0013657195609859285 -0.0008353445341984919 -0.0017256662069136184
12 -0.00011674534771046568 0.0006452104873333356 -0.0011269370600538577
19 0.001092095309669007 0.0011600196133165377 0.0005977694238802357
20 -0.0004275780555911838 -0.0011032134315510152 -0.0018272825477804971
23 -0.0012277611047368854 -0.0006965667107079033 0.0001484451051140831
26 -0.00011922997263179124 -0.0014947137813764524 -0.0013628769641831305
27 0.000890097308753645 -0.000918949115012898 0.001961797776932622
35 -0.0007535376564314713 0.0008397216919275586 0.00046232844573118484
38 -0.0014371059746029371 -0.0023201103186213288 -0.001646662934938487
48 0.0009486820886047697 0.0016636820378321724 -0.0016343332392170775
1 0.0028003116655493524 0.002185335502232808 -0.0005443286729092637
2 0.0015421624119248936 -0.0030656569950636018 -0.0003744911185146737
5 -0.0016281180509321205 0.0010771736371283937 0.0027327422389938063
6 -0.00022456527421291933 -0.0007296918701169918 -0.0008483145187032902
8 0.00016715700524914378 -0.00043813079277004813 -0.0004451287644097342
9 0.00024191870669749887 0.0002780609334000843 0.0007582259912403618
11 0.00041679352684796705 0.0005700335144573066 0.0009447187979189089
13 -0.0004619699512287639 -0.001129059754034818 -0.0024495730409148314
14 0.002037058388848138 0.000863173444458587 0.0006657211101768955
16 -0.0009645266427786018 -0.001005269192864341 0.00011623919043779144
25 0.0016598207397608843 -0.0010802238719956406 0.0009320779690441066
28 -0.0023700099614351448 -0.0007091126581214334 -0.002108672274003366
29 -9.937545433428513e-06 -0.0007381628770301579 0.0007665920355913017
32 -0.000584744451929566 -0.0020476282963200546 0.001126347373384342
36 -0.000778340683408 -0.0008546261988391381 0.0004769640669806601
37 -0.0005168667048655123 0.002186926972364794 -0.0003367718035811618
39 0.0015950308902868925 0.0012886563506326494 0.0016009607979176753
40 -0.0027127865089281032 0.00037978840018924696 -0.0010228959141172693
41 0.00012443253870470395 -0.0012435599154527706 0.00011510046351426959
42 1.0372725521057794e-05 3.862555268833391e-05 0.0008379358208743773
43 -0.0005981474521335227 -0.0014079418491662365 -0.0002294582170042416
44 -0.00018810815111515574 0.0014691305314027026 -0.00020851784676332932
45 0.0009379097444354381 0.0004767530810378167 -0.001421470358845826
46 0.000800676615797674 -0.001345753234829943 0.001987894956663994
47 -0.0006664287582445618 0.0016587315835024025 0.00017765153345674273
49 -0.00017847543821471797 0.001664325193548502 -0.0014172689911016733
50 -0.0012640381904602935 0.001817815526359018 -0.0004235066302392159
10 -0.0006834566146380982 -0.0001770188149219073 0.0002192449692285427
15 0.0005668053576748256 0.0009587096087462416 -0.00024113266894447552
17 0.000757557317192295 0.0005170395993992437 0.0004520149573125431
18 0.0006721064615943756 -0.0010897743484876113 0.002223634407093727
21 -0.0009906025005814246 -0.001187584264015776 0.0015303550795510636
22 -0.00040687908668141803 0.001435100308563274 -0.000902654032024168
24 0.0019183850714499092 -0.000997238534570562 0.00035490491076827716
30 -0.0012296669800454336 -0.0003719450792233897 -0.0012164579769298148
31 0.0017607751906931418 0.0030018550366533374 0.001898073496843695
33 -0.0003329047629549836 0.0004222632799072875 0.0001587797760347723
34 -7.641434814282349e-05 0.0018923191804686007 -0.00189966346440331
51 -7.891473695917557e-05 4.4935996035718946e-05 0.00014358535705977812
