LAMMPS data file via write_data, version 7 Feb 2024, timestep = 255, units = metal

35 atoms
3 atom types

0 2.2858575148342073 xlo xhi
0 11.429287574171036 ylo yhi
0 9.14343005933683 zlo zhi
0 0 -4.571715029668415 xy xz yz

Masses

1 50.9415
2 28.085
3 51.9961

Atoms # atomic

3 3 0.3473698160976728 1.6406745216183425 7.512531461330934 2 1 0
4 3 0.4738427776847466 1.1097898193621574 5.456861601265031 2 1 0
5 3 2.183296715007007 6.238199108753984 0.3091364140728614 1 1 1
10 2 1.1819180082406813 0.8475008617918198 3.5928459266366524 1 1 0
12 2 1.3816727093266552 3.227903475693057 8.53536942959164 1 1 0
14 2 1.9576791547915415 2.3689037598902973 4.109974053485687 1 1 0
15 2 1.6738181116205249 -0.6535673756736777 4.874491957485322 1 1 0
16 2 1.6423021118133259 -0.14478412787623984 6.798442001742336 1 1 0
17 2 0.20064456935034017 -4.334586986743014 8.925402771452642 1 1 0
21 1 1.1374426325987042 0.10888606532046374 8.579772969278137 1 1 0
23 1 0.23946995396140675 -1.5889479138803368 8.054920616783837 2 1 0
24 1 1.571973876032492 2.7791970036978944 6.22523545952251 2 1 0
27 1 0.9030778784830126 2.9833426556886904 2.539040781177006 1 0 0
28 1 0.5488040849161292 -1.9645040022567668 6.1949948777718715 2 1 0
29 1 1.190863318122504 1.8589520941510687 0.3914722035337783 0 0 0
30 1 0.20564628806133964 -0.7165175680065806 3.022126447295676 1 1 0
33 1 2.26676884329142 1.3083376714372372 1.9471196059891984 1 1 0
34 1 1.5255037753815166 -3.277131750266553 7.492468784782589 1 1 0
1 3 0.6294141972114169 3.8549440076029082 4.849758932343629 1 0 0
2 3 0.15602760302362426 9.316666987833038 0.5293909483189387 1 0 0
6 3 2.147419377220776 3.4771726334274904 0.8667316780566526 0 0 0
7 3 2.009434416661961 7.635897134398084 3.3464776906674514 1 0 0
8 2 0.47719168420346 6.5533573914676095 6.783286867635793 1 0 0
9 2 1.4525316440774494 5.563221951942477 8.20243526069321 1 1 0
11 2 0.25577873774612864 6.264796602756473 2.545103806402193 1 0 0
13 2 1.867520306581103 4.634444666114137 3.3720564625034086 0 0 0
18 2 0.9982734536931762 7.63802599933394 1.3804286939445503 1 0 0
19 1 1.0136719753606351 4.981794112420949 1.5639331779075445 1 0 0
20 1 1.4482364361018045 9.147445360410787 2.361694279436287 1 0 0
22 1 1.7203481815459227 5.177837211430202 5.8471366531620985 0 0 0
25 1 1.2557748423953088 -0.40028663946911447 1.2911106405723887 1 1 0
26 1 0.38501493097870304 4.181918079845023 7.199413480362237 2 1 0
31 1 0.7978793081419601 6.1683238062937304 4.488485941284152 1 0 0
32 1 1.7458796204381608 7.716126216735992 5.448763536277514 1 0 0
35 1 0.6216456040387327 9.096912144397038 4.251824682724259 1 0 0

Velocities

3 -0.664368256455408 -0.6685083321266704 4.331781656497993
4 0.22990159397018214 1.5327422838003244 3.3591078312784384
5 -2.8481748848335826 0.0660172795516879 3.4685479813017164
10 -6.234871459007348 -4.309546439313004 0.07439910108121132
12 -0.7797913401703039 1.6179685651994045 1.0220905514277794
14 -0.8932167209960449 -1.2654868674372075 0.7112174402712992
15 6.978526552127449 2.1172612589267903 -0.2200509075282413
16 -5.342600760364634 1.3581096878940442 1.6439280317238163
17 -1.8024624962421965 1.9525880852668114 -0.9098392347981714
21 -2.8286008185781477 -2.3811043115703368 4.177415861006418
23 -7.939856532267265 -1.2278655366969822 -1.3126203700723424
24 0.07670502476742433 -0.468864827180319 2.859056311141027
27 -1.1927573121026789 -0.04659013318648586 2.6510380187833897
28 1.6079824288659323 2.136202491181158 0.2665990934677963
29 -2.8815612144997873 -0.2596609938534606 -1.443398685130501
30 2.4934985750383993 -0.6487454445946227 -2.5249429406786716
33 -2.538132276182237 0.5207595382351486 -0.5333177340736024
34 -4.431573505565842 -0.05011640975149417 -2.4197898939422053
1 -0.4847171935543033 -4.649426530229433 0.28089274238101847
2 1.0757960597743463 4.060313826389091 -6.126925039264927
6 0.24235671234896375 -2.5291122971115083 2.8510672615236996
7 -1.79196077834518 -2.2775324961631407 2.3652543464623115
8 -0.8516428609366407 -0.5762749162778725 -5.146200776186959
9 -0.24491103451371363 2.5213133887861257 -3.774095904527674
11 0.4578485032404924 1.6363104110156077 -1.5164530466033808
13 -0.9269070047469471 -0.9291130929014564 2.8416815331135172
18 -6.816893997227451 4.937116677704213 1.959453404471645
19 -0.13080703414407982 -1.4070525590286715 2.6701138431329827
20 17.842274885523725 -0.8955479558838215 -7.337590853712333
22 -0.1800312855023918 -4.584834510275721 -2.5253698773265736
25 -1.7804123334101347 2.226063209716599 -1.5987394112060547
26 0.2502057454671236 0.6918375408661414 1.212034286361689
31 1.0800782146993981 -1.4368031721132615 2.179361191812239
32 5.165628998772595 3.1161601204730025 -0.30456172268214343
35 10.58949829074458 3.1833532344880657 -4.509310692578945
