LAMMPS data file via write_data, version 7 Feb 2024, timestep = 1000, units = metal

44 atoms
2 atom types

0 2.2858575148342073 xlo xhi
0 2.2858575148342073 ylo yhi
0 66.28986793019202 zlo zhi
0 48.00300781151836 34.28786272251311 xy xz yz

Masses

1 28.085
2 51.9961

Atoms # atomic

8 2 6.889894095331129 5.239085925071391 7.775482117797586 0 0 0
25 1 5.753562471846818 4.096074851987615 6.265646220366349 -1 0 0
33 1 3.4799981967592486 1.8098425338535549 3.2562488777107603 -2 0 0
43 1 4.616896830689884 2.952881987762901 4.75997642828189 -1 0 0
40 1 8.026273057027613 6.381387214034019 9.28651895582752 -1 0 0
30 1 9.163468948711516 7.525479746437611 10.791165179576627 0 1 0
44 1 10.300571145312974 6.382818232435353 12.295299588365326 0 1 0
3 2 14.854601104373838 10.953485190368344 18.327161912741364 0 -1 0
12 2 11.4380255537242 7.52534436029499 13.803887065419714 0 0 0
13 2 13.715062561979734 9.810493527000284 16.822563964413924 0 0 0
29 1 12.576256714016083 8.667026418455182 15.313496497435914 0 0 0
10 2 18.278348780287086 12.09575216786673 22.85083109348938 0 1 0
37 1 15.995157439275477 12.096314669905835 19.833841081973077 0 0 0
39 1 17.136394378877867 13.238816763064651 21.343155849153497 0 0 0
22 1 20.565292117381414 14.381597409991699 25.860545753546553 0 0 0
42 1 19.421465689472086 13.238863449265416 24.357127338190846 0 0 0
7 2 21.709770241254464 15.524162191781475 27.366211570497256 0 1 0
16 2 22.854971430462395 16.66716050371971 28.874301951657582 0 1 0
21 1 24.001413195905023 17.809925207354954 30.38105670192665 1 0 0
4 2 28.59232488847377 20.093995177860588 36.40805325639814 0 1 0
15 2 25.148342288708196 16.666805052869357 31.88645348991909 1 2 0
18 1 26.295954412140638 17.809478615358064 33.39394221180653 0 1 0
35 1 27.443661286924822 18.95147737613356 34.90165942344417 0 1 0
14 2 28.604060194793632 22.379923801757172 39.41814871776725 1 1 0
31 1 27.455219889684944 21.2370977113625 37.913032765954576 1 1 0
23 1 30.901190892729108 22.378810171569906 42.432111079281896 1 1 0
9 2 32.04978291881615 23.521736993262742 43.937614170776406 1 1 0
26 1 29.752745655738515 21.236656014251025 40.925502876820175 1 1 0
2 2 35.49356785430936 26.950567732412498 48.457934612034144 1 0 0
20 1 34.34633972905445 25.807583931648445 46.949654616293955 1 0 0
34 1 33.19820097740966 24.66467936125368 45.44261965562849 2 1 0
6 2 36.64135093000495 28.093620873197942 49.96240024638949 2 0 0
24 1 37.78751481541956 26.951843848254942 51.46477803375891 1 1 0
32 1 38.93323848637515 28.095448415819202 52.968328640533635 2 1 0
36 1 40.078305620828594 29.238243975431295 54.474964348800235 1 1 0
11 2 41.22285210464291 30.381465307633484 55.98284589766684 2 1 0
38 1 42.36608155681906 31.524111422269463 57.49025379657866 2 1 0
1 2 44.65033201677218 31.524576969288578 60.50086957040856 1 1 0
5 2 46.930875205404305 33.81052913178297 63.51727414020383 1 1 0
17 2 48.06993026808641 34.953768130679464 65.02145717545257 1 1 0
19 1 2.342732812907058 2.952296272626308 1.7477877670164792 0 0 1
27 1 43.508571330700896 32.66746514976124 58.99439213278582 2 1 0
28 1 45.79096666941493 32.66744097988531 62.00994653655868 1 1 0
41 1 1.2051336520043718 1.808939459942865 0.23884627464720856 0 0 1

Velocities

8 0.00525711130364623 -0.006542772644609927 0.14678092016088518
25 -0.01993783120489341 -0.007032490653502871 -0.4801895258197523
33 -0.09071842495743712 -0.0041537821641750294 -0.736999973859318
43 -0.06298954120005387 -0.007057452329704205 0.7230287503461509
40 0.05582785045234312 -0.00955878838516687 -0.2287357798172795
30 0.05885633974423185 -0.019482809107501442 0.1436950489771109
44 0.09781490317351862 -0.011624038163673227 -0.175011535237722
3 0.15099608353859356 -0.007257114904498791 -0.0671577353942413
12 0.11520686837537514 -0.0009922506337002664 0.012546566200424525
13 0.13294031855014807 -0.0013984737269947158 -0.02649788000487896
29 0.11057312263274013 -0.020715985991282437 -0.14808798582093352
10 0.17487050078264954 -0.004557771460556746 -0.0676245001099009
37 0.17513802768506403 -0.004600399129815845 -0.03758217808084954
39 0.18626468330499144 -0.0017004616478366963 -0.10069489274119281
22 0.17202919953848844 -0.006571130920170773 -0.0760428115965362
42 0.1838774327320411 -0.00673699459756673 -0.07599543434781904
7 0.14712240391526718 -0.005500896101297087 -0.06424835381137962
16 0.13328606649915745 -0.001396359575709532 -0.06045216722119434
21 0.13369434191147794 0.001431416570099623 -0.059054030927170986
4 0.05779889742308911 -0.002579532960103913 -0.02215432191113641
15 0.11148094684312379 0.0023390031443034694 -0.04694159991351163
18 0.10558000388285507 -0.0006974946808560288 -0.05130856859307385
35 0.08485209287915582 -0.004507404859407099 -0.03291468121479114
14 0.013468838779884825 0.0074391160241502234 -8.227964931744573e-05
31 0.03930805391451366 0.0020969563764405754 -0.01204477127552276
23 -0.03222287524996721 0.011663038943576017 0.029403982845232466
9 -0.0511033816321578 0.008762227723688497 0.026893084229066
26 -0.007993917281396132 0.013198428306825723 0.00984002488125806
2 -0.10470425214051529 0.008455601917830265 0.052101802713678445
20 -0.09537056656540055 0.009103381362597585 0.047909896457853415
34 -0.07637043410687985 0.009301520791951423 0.038453689948968854
6 -0.12222403345001043 0.008440358259697876 0.05907945159184648
24 -0.15154785238102983 0.008987184130981594 0.07014384998369262
32 -0.166732156186091 0.00849376174372516 0.0776885726047804
36 -0.18113198402442032 0.007507467551022759 0.07681658573536986
11 -0.17250584884162135 0.0054518397651374655 0.07410892481682807
38 -0.1908376632409603 0.006083286846650636 0.06908075719743234
1 -0.16905069858912106 0.002807865797271926 0.05107956133680088
5 -0.13817214695347307 0.0008475458165023634 0.02317670570683371
17 -0.12719761924758907 -0.0001658225794686887 0.15359129819104636
19 -0.11361580784315808 -0.003173175216922038 0.731602717630723
27 -0.19098214696488974 0.0058482733667374895 0.07731950117348321
28 -0.1686056831733559 0.0022754849342878952 0.09303562474937313
41 -0.12553019697702522 -0.0027216131031271465 -0.3940191281877778
