ats_112.data (written by ASE) 

9 	 atoms 
2  atom types
0.0      2.2858575148342073  xlo xhi
0.0      6.8575725445026219  ylo yhi
0.0      6.8575725445026219  zlo zhi
     2.2858575148342073                       0      2.2858575148342073  xy xz yz


Atoms 

     1   1      3.8271382741954119      2.8088977274631954     0.71442451163250631
     2   2      5.5408990415824988      7.0193592676331935      3.0168135881661526
     3   2      1.1833960077796803      0.4676776907925676     0.81161540711094693
     4   2      1.6523300512615633      2.4074604660917376      4.4174204995553445
     5   2       4.417927451647337      7.1507896449410069      4.3286570265879192
     6   2      1.7734277914861847      3.5125885804765304      3.6604237215726374
     7   2      4.7223981335815379      5.7819111048381968      2.1882688100688457
     8   2      2.3144675447253169      4.2214268700598456      2.2989685398463742
     9   2      1.7995775603783919      4.0424161505273677      5.2764149145978365
