ats_51.data (written by ASE) 

7 	 atoms 
1  atom types
0.0      2.2858575148342073  xlo xhi
0.0      2.2858575148342073  ylo yhi
0.0      16.001002603839453  zlo zhi
                      0      4.5717150296684146      4.5717150296684146  xy xz yz


Atoms 

     1   1      5.8413507938968827       5.345775254503673      11.744858000060297
     2   1      7.4852550120255179      6.0738351486742159      13.619310737372325
     3   1       5.979731866737791      5.3485252202124229      8.8234273215243757
     4   1       7.170272377338307      8.5210484591264244       15.96196070207384
     5   1      2.6885320341838455      3.1608403852326892      5.1310661781073819
     6   1      5.7097466155028398      4.4680160974993672        9.91910480263682
     7   1      3.3128483933469961      4.6920370729182883      6.2088470058112772
