ats_47.data (written by ASE) 

6 	 atoms 
2  atom types
0.0      2.2858575148342073  xlo xhi
0.0      4.5717150296684146  ylo yhi
0.0      6.8575725445026219  zlo zhi


Atoms 

     1   1     0.39950508289104403      2.5227921303333853      3.0817670696310118
     2   1      1.4064983458361653      3.4022718970477044      1.7876300805849028
     3   1      2.1866333184827424      7.1070765491975925      6.5141716308561852
     4   2      3.3428681184735396      5.6026958041206747      5.0721577822114075
     5   2      2.3711676717193249      5.7380825029849118      3.6226686511672126
     6   2      1.4882651708527423      4.8254704050467723      6.5274364839587244
