ats_43.data (written by ASE) 

7 	 atoms 
1  atom types
0.0      2.2858575148342073  xlo xhi
0.0      2.2858575148342073  ylo yhi
0.0      16.001002603839453  zlo zhi
                      0      4.5717150296684146      4.5717150296684146  xy xz yz


Atoms 

     1   1      7.7619978099474949      6.2947327751940598      13.000540749656059
     2   1      1.4644201193059034      1.0111453965967576     0.53901519617555815
     3   1      5.4391157204744349      5.9164625646405566      10.021791930457178
     4   1      3.5359413066800762      5.3463516113686502      7.7552027087686559
     5   1      6.5893223714410789      6.2051909471215705      13.887205496783862
     6   1      1.3508535606095933      1.3504623275830632      2.3091653276555846
     7   1      3.7375583699860027      3.1848646066500224      4.4352199322831902
