ats_0.data (written by ASE) 

101 	 atoms 
3  atom types
0.0      4.5717150296684146  xlo xhi
0.0       43.43129278184994  ylo yhi
0.0      2.2858575148342073  zlo zhi
     27.430290178010491                       0                       0  xy xz yz


Atoms 

     1   2      12.117417950610543      10.305405954270553      1.9311557483451973
     2   2      10.818686487963527      10.422363348550517      1.8756278431677376
     3   2      1.9781101452027643      2.4179110163130693      1.1577500833941685
     4   2       4.366419871834335      4.6555226871770889     0.77463290965288079
     5   2      28.886610527646432      38.917577595237901     0.31535083122104507
     6   2      29.412442519547071      37.168438060314422      1.5945355538514461
     7   2      11.783451255871235      12.306139846807206       1.504224164035231
     8   2      7.2117269123158918      6.9962267479941262      1.2161971829940765
     9   2      15.976575245488238      16.880922747317374      1.9249119387327727
    10   2      24.423432347601569      31.564070020957885     0.41736967481732867
    11   2      8.9747024242699283      9.4804327657772554      2.2206818627099802
    12   2      23.800418930481687       29.93203611448218      1.5151741100253164
    13   2      14.446335099703148      14.784588592368701      1.6090412687813473
    14   2      30.365937827144371      41.153016848577025     0.11395942130905791
    15   2      6.6032748222178306      8.2774434213230172      0.9893716878160782
    16   2      22.150810783183456      28.409375157288366      1.3838704901616148
    17   2      21.270305235724202       23.76922273370166      1.9404932255781213
    18   2      5.4256220348653299      3.3005825413362575    0.090451133135519335
    19   2      25.494460256441087      33.755397107843827      2.2181534894994277
    20   2       9.076405691427631      7.0805337211018546     0.55438416919147393
    21   2      8.7270565796851685      6.1439163154565826      1.5853799954839616
    22   2      7.9639839604914577      8.6311859955064403     0.51422431696533755
    23   2      11.483866157975065       14.39361227359908      2.1490050547324482
    24   2      27.621674363282381       36.31514007609799     0.86063294510295918
    25   2      4.4425517693889169      2.7061050226716503     0.62691595864528682
    26   2      12.465166682723613       16.08185098715294      1.2860949026069748
    27   2      30.133831579440923      38.195872437180547      1.3064752280089227
    28   2      32.815667288469626      40.303054563541025     0.67527208135038097
    29   2      24.901980343200687      32.648883064206672       1.082430569802832
    30   2      12.870429651017856      14.991347832033103      2.0536031094308815
    31   2      36.006123371658816      42.862374696611788      2.2808590637983666
    32   3      32.026385078626113       41.93658519255623     0.73002571764374591
    33   3      29.526417843397319      34.749070500368809      1.0774556621689879
    34   3      25.505508347104943      28.823292088026754     0.52278609067446258
    35   3      19.232295845483272      23.637599133430797      1.3597948035216076
    36   3      16.430749036417492      20.521308726688499      1.8255073276607998
    37   3      23.211288946141831      31.240349720610272      1.2608595147236543
    38   3      22.140543265078517      26.822005423510795     0.09504201475239743
    39   3      20.630890565070519      27.425164161548405      1.0660458772353663
    40   3      33.051188627427457      42.595474052884683      1.8990181285166827
    41   3      23.809947201043606      26.509722651961276      1.8337574136389276
    42   3      22.379081637166266      24.947293628452073     0.26886012631194489
    43   3      5.8774372450094523      6.5131271391079908     0.59214520476736665
    44   3      19.483194286566015      21.202628057715934      1.8004761394632389
    45   3      15.245077908551128      15.790773532612222      1.1045244736573314
    46   3      26.459259507843271      32.797873383444163      1.2584680337340137
    47   3      18.158806530892232      19.761607822863926   0.0077759484008096116
    48   3      17.684855101486047      21.924241331725316      0.9132414397934312
    49   3      11.202370331656311       11.51529770223841     0.62142303063129867
    50   3      28.187502657659302      32.882513419382207     0.51948139684570172
    51   3      26.911192721311156      35.429979190658194      1.6370729857413051
    52   3      30.728256702396926      36.489672334711571     0.75521507150942124
    53   3      31.369473291979553      39.222213453278279     0.52402205091861775
    54   3      14.502032257983782      17.658206514932214      1.8803207453405451
    55   3       20.01036498773361      25.559909560591958     0.86090978844240118
    56   3        3.50768049760328     0.29978246525567087     0.86394843160360413
    57   3      9.2195488674223895      10.526891415019481      1.4064907762340877
    58   3       13.74764623985358       15.92633571754836     0.59547679092734263
    59   3      12.601159191459253      12.444591370673145     0.39146296560634819
    60   3      17.826910543100144      22.956660104141402       2.052981934293058
    61   3      5.1207912621102327       5.160633084392563      1.7796447658076797
    62   3      5.2524900351185106      2.1353605917652794      1.5067552046408661
    63   3      20.803486536551002       22.13132736240733      1.4417052087833324
    64   3      8.3240771855101023      7.6073492269478002      1.8583813033804053
    65   3        24.3767936882874      28.641701190783824      1.7164993535786508
    66   1      8.0456710302722154      5.2057208759136184      2.2519273469576988
    67   1      33.242224048311904      40.892461716177465      1.7951346770183143
    68   1      20.346199536129909      23.080164658672508     0.21971235914893072
    69   1      26.424770519650625       31.33351809932822      1.8811184540984514
    70   1      31.503497184236426      37.739488704305245     0.92949378793048276
    71   1      3.3767617688194256      3.4519276115640847      1.0971607928906142
    72   1      4.5539843663031716      1.1443840397890117    0.042788331976773675
    73   1      9.5513939688570151      11.943445880071263      2.1959055918440886
    74   1      13.001342052226848      17.209642094176736     0.44340378333750274
    75   1      1.9741672914992543      0.7421536219390914     0.22448514089143601
    76   1      11.389981095021104      13.487176623036806      1.2360919325093553
    77   1      29.636413110709174      39.716590520822116      1.9841731622744492
    78   1      3.5318768551919186      2.2926718975266898      1.9278121209331658
    79   1      34.526284861417466       42.56928276726093     0.27110903660943908
    80   1      13.622308827367061      13.512577977550208      1.9740397367465579
    81   1      6.6298734949384208      4.8190869002647556      1.7023629743439666
    82   1       17.13676818581877      18.790928837019329     0.68889951709534913
    83   1      28.551552198608224      37.402589470343074     0.52378852600624271
    84   1      27.733876686460537      34.337647509597168     0.84915772713724724
    85   1      23.012835637344214      28.211090133281644     0.19852756855657261
    86   1      12.286173673467696      14.778522679806128     0.96468576845416198
    87   1      15.013681162166273      19.166186999763212       1.745752980546512
    88   1      10.374968078274012      9.4826178647175325     0.76466239934395863
    89   1      28.403428035271254       35.95184280565627      2.1178925346643629
    90   1      31.260515131760265      40.670991657435366      1.5869784876754047
    91   1      21.212544468660088       24.76540396108722        1.14289156992324
    92   1      25.027193960108065      30.695573685255333      1.8199579013276592
    93   1      9.5840518743161258      8.3111978950343932      2.2073577224610661
    94   1      15.393431111163899      20.177756662409632     0.81173257020023348
    95   1      22.506519872250323      30.026418130861373      1.8863404823327907
    96   1      10.155831312541856      12.766334323184712     0.93716990656268384
    97   1      32.589705191354767      38.648426067970384      1.3782387249299759
    98   1      7.0229465492620928      3.5008720563638178      2.1487371382647344
    99   1      15.887274317498193      18.086080669237536      1.0691299206582481
   100   1     0.55285853255132089    0.051431730455314906     0.81245457362127604
   101   1      34.456191881962532      41.549287428477946      1.2919966020830562
