iter_0.data (written by ASE) 

27648 	 atoms 
4  atom types
0.0      69.120000000000005  xlo xhi
0.0      69.120000000000005  ylo yhi
0.0      69.120000000000005  zlo zhi


Atoms 

     1   1                       0                       0                       0
     2   1      1.4399999999999999      1.4399999999999999      1.4399999999999999
     3   1                       0                       0      2.8799999999999999
     4   1      1.4399999999999999      1.4399999999999999      4.3200000000000003
     5   1                       0                       0      5.7599999999999998
     6   1      1.4399999999999999      1.4399999999999999      7.2000000000000002
     7   1                       0                       0      8.6400000000000006
     8   1      1.4399999999999999      1.4399999999999999                   10.08
     9   1                       0                       0                   11.52
    10   1      1.4399999999999999      1.4399999999999999      12.960000000000001
    11   1                       0                       0                    14.4
    12   1      1.4399999999999999      1.4399999999999999                   15.84
    13   1                       0                       0      17.280000000000001
    14   1      1.4399999999999999      1.4399999999999999      18.719999999999999
    15   1                       0                       0                   20.16
    16   2      1.4399999999999999      1.4399999999999999      21.600000000000001
    17   1                       0                       0      23.039999999999999
    18   1      1.4399999999999999      1.4399999999999999                   24.48
    19   1                       0                       0      25.920000000000002
    20   1      1.4399999999999999      1.4399999999999999      27.359999999999999
    21   1                       0                       0      28.800000000000001
    22   1      1.4399999999999999      1.4399999999999999      30.239999999999998
    23   1                       0                       0                   31.68
    24   2      1.4399999999999999      1.4399999999999999      33.119999999999997
    25   4                       0                       0      34.560000000000002
    26   1      1.4399999999999999      1.4399999999999999                      36
    27   4                       0                       0      37.439999999999998
    28   1      1.4399999999999999      1.4399999999999999      38.880000000000003
    29   1                       0                       0                   40.32
    30   1      1.4399999999999999      1.4399999999999999      41.759999999999998
    31   1                       0                       0      43.200000000000003
    32   1      1.4399999999999999      1.4399999999999999      44.640000000000001
    33   1                       0                       0      46.079999999999998
    34   3      1.4399999999999999      1.4399999999999999      47.520000000000003
    35   2                       0                       0      48.960000000000001
    36   1      1.4399999999999999      1.4399999999999999      50.399999999999999
    37   4                       0                       0      51.840000000000003
    38   2      1.4399999999999999      1.4399999999999999      53.280000000000001
    39   1                       0                       0      54.719999999999999
    40   1      1.4399999999999999      1.4399999999999999      56.159999999999997
    41   3                       0                       0      57.600000000000001
    42   1      1.4399999999999999      1.4399999999999999      59.039999999999999
    43   1                       0                       0      60.479999999999997
    44   1      1.4399999999999999      1.4399999999999999      61.920000000000002
    45   1                       0                       0      63.359999999999999
    46   1      1.4399999999999999      1.4399999999999999      64.799999999999997
    47   1                       0                       0      66.239999999999995
    48   2      1.4399999999999999      1.4399999999999999      67.680000000000007
    49   1                       0      2.8799999999999999                       0
    50   2      1.4399999999999999      4.3200000000000003      1.4399999999999999
    51   2                       0      2.8799999999999999      2.8799999999999999
    52   1      1.4399999999999999      4.3200000000000003      4.3200000000000003
    53   1                       0      2.8799999999999999      5.7599999999999998
    54   1      1.4399999999999999      4.3200000000000003      7.2000000000000002
    55   1                       0      2.8799999999999999      8.6400000000000006
    56   1      1.4399999999999999      4.3200000000000003                   10.08
    57   2                       0      2.8799999999999999                   11.52
    58   1      1.4399999999999999      4.3200000000000003      12.960000000000001
    59   1                       0      2.8799999999999999                    14.4
    60   1      1.4399999999999999      4.3200000000000003                   15.84
    61   1                       0      2.8799999999999999      17.280000000000001
    62   1      1.4399999999999999      4.3200000000000003      18.719999999999999
    63   1                       0      2.8799999999999999                   20.16
    64   1      1.4399999999999999      4.3200000000000003      21.600000000000001
    65   1                       0      2.8799999999999999      23.039999999999999
    66   2      1.4399999999999999      4.3200000000000003                   24.48
    67   1                       0      2.8799999999999999      25.920000000000002
    68   1      1.4399999999999999      4.3200000000000003      27.359999999999999
    69   1                       0      2.8799999999999999      28.800000000000001
    70   1      1.4399999999999999      4.3200000000000003      30.239999999999998
    71   2                       0      2.8799999999999999                   31.68
    72   2      1.4399999999999999      4.3200000000000003      33.119999999999997
    73   1                       0      2.8799999999999999      34.560000000000002
    74   1      1.4399999999999999      4.3200000000000003                      36
    75   1                       0      2.8799999999999999      37.439999999999998
    76   1      1.4399999999999999      4.3200000000000003      38.880000000000003
    77   1                       0      2.8799999999999999                   40.32
    78   2      1.4399999999999999      4.3200000000000003      41.759999999999998
    79   1                       0      2.8799999999999999      43.200000000000003
    80   2      1.4399999999999999      4.3200000000000003      44.640000000000001
    81   1                       0      2.8799999999999999      46.079999999999998
    82   1      1.4399999999999999      4.3200000000000003      47.520000000000003
    83   1                       0      2.8799999999999999      48.960000000000001
    84   1      1.4399999999999999      4.3200000000000003      50.399999999999999
    85   1                       0      2.8799999999999999      51.840000000000003
    86   2      1.4399999999999999      4.3200000000000003      53.280000000000001
    87   1                       0      2.8799999999999999      54.719999999999999
    88   2      1.4399999999999999      4.3200000000000003      56.159999999999997
    89   1                       0      2.8799999999999999      57.600000000000001
    90   1      1.4399999999999999      4.3200000000000003      59.039999999999999
    91   3                       0      2.8799999999999999      60.479999999999997
    92   1      1.4399999999999999      4.3200000000000003      61.920000000000002
    93   1                       0      2.8799999999999999      63.359999999999999
    94   1      1.4399999999999999      4.3200000000000003      64.799999999999997
    95   1                       0      2.8799999999999999      66.239999999999995
    96   1      1.4399999999999999      4.3200000000000003      67.680000000000007
    97   1                       0      5.7599999999999998                       0
    98   1      1.4399999999999999      7.2000000000000002      1.4399999999999999
    99   2                       0      5.7599999999999998      2.8799999999999999
   100   1      1.4399999999999999      7.2000000000000002      4.3200000000000003
   101   2                       0      5.7599999999999998      5.7599999999999998
   102   1      1.4399999999999999      7.2000000000000002      7.2000000000000002
   103   1                       0      5.7599999999999998      8.6400000000000006
   104   2      1.4399999999999999      7.2000000000000002                   10.08
   105   1                       0      5.7599999999999998                   11.52
   106   2      1.4399999999999999      7.2000000000000002      12.960000000000001
   107   1                       0      5.7599999999999998                    14.4
   108   1      1.4399999999999999      7.2000000000000002                   15.84
   109   1                       0      5.7599999999999998      17.280000000000001
   110   1      1.4399999999999999      7.2000000000000002      18.719999999999999
   111   2                       0      5.7599999999999998                   20.16
   112   2      1.4399999999999999      7.2000000000000002      21.600000000000001
   113   1                       0      5.7599999999999998      23.039999999999999
   114   1      1.4399999999999999      7.2000000000000002                   24.48
   115   2                       0      5.7599999999999998      25.920000000000002
   116   1      1.4399999999999999      7.2000000000000002      27.359999999999999
   117   2                       0      5.7599999999999998      28.800000000000001
   118   1      1.4399999999999999      7.2000000000000002      30.239999999999998
   119   1                       0      5.7599999999999998                   31.68
   120   2      1.4399999999999999      7.2000000000000002      33.119999999999997
   121   1                       0      5.7599999999999998      34.560000000000002
   122   1      1.4399999999999999      7.2000000000000002                      36
   123   1                       0      5.7599999999999998      37.439999999999998
   124   1      1.4399999999999999      7.2000000000000002      38.880000000000003
   125   2                       0      5.7599999999999998                   40.32
   126   1      1.4399999999999999      7.2000000000000002      41.759999999999998
   127   1                       0      5.7599999999999998      43.200000000000003
   128   2      1.4399999999999999      7.2000000000000002      44.640000000000001
   129   2                       0      5.7599999999999998      46.079999999999998
   130   2      1.4399999999999999      7.2000000000000002      47.520000000000003
   131   1                       0      5.7599999999999998      48.960000000000001
   132   1      1.4399999999999999      7.2000000000000002      50.399999999999999
   133   1                       0      5.7599999999999998      51.840000000000003
   134   1      1.4399999999999999      7.2000000000000002      53.280000000000001
   135   1                       0      5.7599999999999998      54.719999999999999
   136   1      1.4399999999999999      7.2000000000000002      56.159999999999997
   137   1                       0      5.7599999999999998      57.600000000000001
   138   4      1.4399999999999999      7.2000000000000002      59.039999999999999
   139   2                       0      5.7599999999999998      60.479999999999997
   140   1      1.4399999999999999      7.2000000000000002      61.920000000000002
   141   1                       0      5.7599999999999998      63.359999999999999
   142   3      1.4399999999999999      7.2000000000000002      64.799999999999997
   143   2                       0      5.7599999999999998      66.239999999999995
   144   3      1.4399999999999999      7.2000000000000002      67.680000000000007
   145   1                       0      8.6400000000000006                       0
   146   2      1.4399999999999999                   10.08      1.4399999999999999
   147   1                       0      8.6400000000000006      2.8799999999999999
   148   1      1.4399999999999999                   10.08      4.3200000000000003
   149   1                       0      8.6400000000000006      5.7599999999999998
   150   1      1.4399999999999999                   10.08      7.2000000000000002
   151   2                       0      8.6400000000000006      8.6400000000000006
   152   1      1.4399999999999999                   10.08                   10.08
   153   1                       0      8.6400000000000006                   11.52
   154   1      1.4399999999999999                   10.08      12.960000000000001
   155   1                       0      8.6400000000000006                    14.4
   156   4      1.4399999999999999                   10.08                   15.84
   157   1                       0      8.6400000000000006      17.280000000000001
   158   1      1.4399999999999999                   10.08      18.719999999999999
   159   1                       0      8.6400000000000006                   20.16
   160   2      1.4399999999999999                   10.08      21.600000000000001
   161   1                       0      8.6400000000000006      23.039999999999999
   162   3      1.4399999999999999                   10.08                   24.48
   163   3                       0      8.6400000000000006      25.920000000000002
   164   1      1.4399999999999999                   10.08      27.359999999999999
   165   1                       0      8.6400000000000006      28.800000000000001
   166   1      1.4399999999999999                   10.08      30.239999999999998
   167   1                       0      8.6400000000000006                   31.68
   168   1      1.4399999999999999                   10.08      33.119999999999997
   169   1                       0      8.6400000000000006      34.560000000000002
   170   4      1.4399999999999999                   10.08                      36
   171   1                       0      8.6400000000000006      37.439999999999998
   172   1      1.4399999999999999                   10.08      38.880000000000003
   173   2                       0      8.6400000000000006                   40.32
   174   1      1.4399999999999999                   10.08      41.759999999999998
   175   1                       0      8.6400000000000006      43.200000000000003
   176   1      1.4399999999999999                   10.08      44.640000000000001
   177   1                       0      8.6400000000000006      46.079999999999998
   178   1      1.4399999999999999                   10.08      47.520000000000003
   179   1                       0      8.6400000000000006      48.960000000000001
   180   1      1.4399999999999999                   10.08      50.399999999999999
   181   1                       0      8.6400000000000006      51.840000000000003
   182   1      1.4399999999999999                   10.08      53.280000000000001
   183   1                       0      8.6400000000000006      54.719999999999999
   184   1      1.4399999999999999                   10.08      56.159999999999997
   185   1                       0      8.6400000000000006      57.600000000000001
   186   2      1.4399999999999999                   10.08      59.039999999999999
   187   2                       0      8.6400000000000006      60.479999999999997
   188   1      1.4399999999999999                   10.08      61.920000000000002
   189   2                       0      8.6400000000000006      63.359999999999999
   190   3      1.4399999999999999                   10.08      64.799999999999997
   191   1                       0      8.6400000000000006      66.239999999999995
   192   1      1.4399999999999999                   10.08      67.680000000000007
   193   1                       0                   11.52                       0
   194   1      1.4399999999999999      12.960000000000001      1.4399999999999999
   195   1                       0                   11.52      2.8799999999999999
   196   1      1.4399999999999999      12.960000000000001      4.3200000000000003
   197   1                       0                   11.52      5.7599999999999998
   198   1      1.4399999999999999      12.960000000000001      7.2000000000000002
   199   3                       0                   11.52      8.6400000000000006
   200   1      1.4399999999999999      12.960000000000001                   10.08
   201   1                       0                   11.52                   11.52
   202   1      1.4399999999999999      12.960000000000001      12.960000000000001
   203   1                       0                   11.52                    14.4
   204   2      1.4399999999999999      12.960000000000001                   15.84
   205   2                       0                   11.52      17.280000000000001
   206   1      1.4399999999999999      12.960000000000001      18.719999999999999
   207   1                       0                   11.52                   20.16
   208   2      1.4399999999999999      12.960000000000001      21.600000000000001
   209   1                       0                   11.52      23.039999999999999
   210   1      1.4399999999999999      12.960000000000001                   24.48
   211   2                       0                   11.52      25.920000000000002
   212   1      1.4399999999999999      12.960000000000001      27.359999999999999
   213   2                       0                   11.52      28.800000000000001
   214   1      1.4399999999999999      12.960000000000001      30.239999999999998
   215   3                       0                   11.52                   31.68
   216   1      1.4399999999999999      12.960000000000001      33.119999999999997
   217   1                       0                   11.52      34.560000000000002
   218   2      1.4399999999999999      12.960000000000001                      36
   219   2                       0                   11.52      37.439999999999998
   220   4      1.4399999999999999      12.960000000000001      38.880000000000003
   221   1                       0                   11.52                   40.32
   222   3      1.4399999999999999      12.960000000000001      41.759999999999998
   223   1                       0                   11.52      43.200000000000003
   224   3      1.4399999999999999      12.960000000000001      44.640000000000001
   225   1                       0                   11.52      46.079999999999998
   226   1      1.4399999999999999      12.960000000000001      47.520000000000003
   227   1                       0                   11.52      48.960000000000001
   228   2      1.4399999999999999      12.960000000000001      50.399999999999999
   229   3                       0                   11.52      51.840000000000003
   230   1      1.4399999999999999      12.960000000000001      53.280000000000001
   231   1                       0                   11.52      54.719999999999999
   232   1      1.4399999999999999      12.960000000000001      56.159999999999997
   233   1                       0                   11.52      57.600000000000001
   234   4      1.4399999999999999      12.960000000000001      59.039999999999999
   235   1                       0                   11.52      60.479999999999997
   236   1      1.4399999999999999      12.960000000000001      61.920000000000002
   237   1                       0                   11.52      63.359999999999999
   238   2      1.4399999999999999      12.960000000000001      64.799999999999997
   239   2                       0                   11.52      66.239999999999995
   240   1      1.4399999999999999      12.960000000000001      67.680000000000007
   241   1                       0                    14.4                       0
   242   3      1.4399999999999999                   15.84      1.4399999999999999
   243   1                       0                    14.4      2.8799999999999999
   244   1      1.4399999999999999                   15.84      4.3200000000000003
   245   1                       0                    14.4      5.7599999999999998
   246   1      1.4399999999999999                   15.84      7.2000000000000002
   247   1                       0                    14.4      8.6400000000000006
   248   4      1.4399999999999999                   15.84                   10.08
   249   2                       0                    14.4                   11.52
   250   1      1.4399999999999999                   15.84      12.960000000000001
   251   1                       0                    14.4                    14.4
   252   1      1.4399999999999999                   15.84                   15.84
   253   1                       0                    14.4      17.280000000000001
   254   1      1.4399999999999999                   15.84      18.719999999999999
   255   1                       0                    14.4                   20.16
   256   1      1.4399999999999999                   15.84      21.600000000000001
   257   1                       0                    14.4      23.039999999999999
   258   1      1.4399999999999999                   15.84                   24.48
   259   1                       0                    14.4      25.920000000000002
   260   2      1.4399999999999999                   15.84      27.359999999999999
   261   1                       0                    14.4      28.800000000000001
   262   1      1.4399999999999999                   15.84      30.239999999999998
   263   1                       0                    14.4                   31.68
   264   1      1.4399999999999999                   15.84      33.119999999999997
   265   1                       0                    14.4      34.560000000000002
   266   1      1.4399999999999999                   15.84                      36
   267   3                       0                    14.4      37.439999999999998
   268   1      1.4399999999999999                   15.84      38.880000000000003
   269   1                       0                    14.4                   40.32
   270   4      1.4399999999999999                   15.84      41.759999999999998
   271   2                       0                    14.4      43.200000000000003
   272   1      1.4399999999999999                   15.84      44.640000000000001
   273   1                       0                    14.4      46.079999999999998
   274   2      1.4399999999999999                   15.84      47.520000000000003
   275   1                       0                    14.4      48.960000000000001
   276   1      1.4399999999999999                   15.84      50.399999999999999
   277   2                       0                    14.4      51.840000000000003
   278   1      1.4399999999999999                   15.84      53.280000000000001
   279   2                       0                    14.4      54.719999999999999
   280   1      1.4399999999999999                   15.84      56.159999999999997
   281   1                       0                    14.4      57.600000000000001
   282   2      1.4399999999999999                   15.84      59.039999999999999
   283   1                       0                    14.4      60.479999999999997
   284   3      1.4399999999999999                   15.84      61.920000000000002
   285   1                       0                    14.4      63.359999999999999
   286   1      1.4399999999999999                   15.84      64.799999999999997
   287   2                       0                    14.4      66.239999999999995
   288   1      1.4399999999999999                   15.84      67.680000000000007
   289   1                       0      17.280000000000001                       0
   290   2      1.4399999999999999      18.719999999999999      1.4399999999999999
   291   1                       0      17.280000000000001      2.8799999999999999
   292   1      1.4399999999999999      18.719999999999999      4.3200000000000003
   293   1                       0      17.280000000000001      5.7599999999999998
   294   1      1.4399999999999999      18.719999999999999      7.2000000000000002
   295   1                       0      17.280000000000001      8.6400000000000006
   296   4      1.4399999999999999      18.719999999999999                   10.08
   297   1                       0      17.280000000000001                   11.52
   298   1      1.4399999999999999      18.719999999999999      12.960000000000001
   299   1                       0      17.280000000000001                    14.4
   300   1      1.4399999999999999      18.719999999999999                   15.84
   301   1                       0      17.280000000000001      17.280000000000001
   302   1      1.4399999999999999      18.719999999999999      18.719999999999999
   303   1                       0      17.280000000000001                   20.16
   304   3      1.4399999999999999      18.719999999999999      21.600000000000001
   305   1                       0      17.280000000000001      23.039999999999999
   306   1      1.4399999999999999      18.719999999999999                   24.48
   307   2                       0      17.280000000000001      25.920000000000002
   308   1      1.4399999999999999      18.719999999999999      27.359999999999999
   309   2                       0      17.280000000000001      28.800000000000001
   310   2      1.4399999999999999      18.719999999999999      30.239999999999998
   311   1                       0      17.280000000000001                   31.68
   312   1      1.4399999999999999      18.719999999999999      33.119999999999997
   313   1                       0      17.280000000000001      34.560000000000002
   314   1      1.4399999999999999      18.719999999999999                      36
   315   1                       0      17.280000000000001      37.439999999999998
   316   1      1.4399999999999999      18.719999999999999      38.880000000000003
   317   2                       0      17.280000000000001                   40.32
   318   1      1.4399999999999999      18.719999999999999      41.759999999999998
   319   1                       0      17.280000000000001      43.200000000000003
   320   1      1.4399999999999999      18.719999999999999      44.640000000000001
   321   1                       0      17.280000000000001      46.079999999999998
   322   1      1.4399999999999999      18.719999999999999      47.520000000000003
   323   1                       0      17.280000000000001      48.960000000000001
   324   1      1.4399999999999999      18.719999999999999      50.399999999999999
   325   4                       0      17.280000000000001      51.840000000000003
   326   1      1.4399999999999999      18.719999999999999      53.280000000000001
   327   1                       0      17.280000000000001      54.719999999999999
   328   2      1.4399999999999999      18.719999999999999      56.159999999999997
   329   1                       0      17.280000000000001      57.600000000000001
   330   2      1.4399999999999999      18.719999999999999      59.039999999999999
   331   2                       0      17.280000000000001      60.479999999999997
   332   1      1.4399999999999999      18.719999999999999      61.920000000000002
   333   1                       0      17.280000000000001      63.359999999999999
   334   1      1.4399999999999999      18.719999999999999      64.799999999999997
   335   2                       0      17.280000000000001      66.239999999999995
   336   1      1.4399999999999999      18.719999999999999      67.680000000000007
   337   2                       0                   20.16                       0
   338   1      1.4399999999999999      21.600000000000001      1.4399999999999999
   339   2                       0                   20.16      2.8799999999999999
   340   1      1.4399999999999999      21.600000000000001      4.3200000000000003
   341   3                       0                   20.16      5.7599999999999998
   342   1      1.4399999999999999      21.600000000000001      7.2000000000000002
   343   2                       0                   20.16      8.6400000000000006
   344   1      1.4399999999999999      21.600000000000001                   10.08
   345   1                       0                   20.16                   11.52
   346   2      1.4399999999999999      21.600000000000001      12.960000000000001
   347   1                       0                   20.16                    14.4
   348   3      1.4399999999999999      21.600000000000001                   15.84
   349   1                       0                   20.16      17.280000000000001
   350   1      1.4399999999999999      21.600000000000001      18.719999999999999
   351   1                       0                   20.16                   20.16
   352   1      1.4399999999999999      21.600000000000001      21.600000000000001
   353   1                       0                   20.16      23.039999999999999
   354   4      1.4399999999999999      21.600000000000001                   24.48
   355   1                       0                   20.16      25.920000000000002
   356   2      1.4399999999999999      21.600000000000001      27.359999999999999
   357   2                       0                   20.16      28.800000000000001
   358   2      1.4399999999999999      21.600000000000001      30.239999999999998
   359   1                       0                   20.16                   31.68