LAMMPS data file via write_data, version 7 Feb 2024, timestep = 1000, units = metal

36 atoms
3 atom types

0 2.2858575148342073 xlo xhi
0 2.2858575148342073 ylo yhi
0 66.28986793019202 zlo zhi
0 27.430290178010488 11.429287574171036 xy xz yz

Masses

1 50.9415
2 28.085
3 51.9961

Atoms # atomic

10 2 1.0286320290122546 1.3832733897606422 0.6860839035496188 0 0 0
11 2 3.3150011980018927 1.3805454940419106 4.34478604697373 0 0 0
34 1 2.173450325980607 2.525302530916052 2.5162651661880813 0 -1 0
14 2 4.439247284518095 2.511631857565913 9.830406413306745 0 0 0
15 2 5.591020349626085 3.6593326672334383 8.00169741660498 0 0 0
20 1 5.21176353189112 3.6434350331927847 11.834276728892476 0 0 0
27 1 4.454542583621029 2.5206363163400045 6.172837262526675 0 0 0
1 3 7.46867971754434 3.626366615868003 15.491790361521309 1 0 0
19 1 6.341561241121089 2.4930561940212534 13.662980855609351 1 0 0
3 3 8.59916923405833 4.761976833379785 17.316646893104124 1 0 0
7 2 9.686359895200551 5.873716693179552 22.80477844233862 1 0 0
8 2 9.726530798442594 3.6115550372047194 19.143277551813238 0 1 0
21 1 10.848547916186652 4.741345647424683 20.97530607985071 0 0 0
36 1 10.809469024271117 4.720007730489948 24.63449798974737 1 1 0
6 2 14.186285453219018 5.844254546888139 30.11560209716619 0 1 0
12 2 11.93165883093606 5.852147477249708 26.465440660480127 0 0 0
18 2 13.058870876283102 6.990966539080171 28.291497977307614 0 0 0
23 1 14.154394168165647 5.83712393651023 33.770011939429644 1 1 0
29 1 15.313774318030747 6.983692774764053 31.941341717634344 0 1 0
13 2 15.282391017665304 6.978914738720332 35.59917466563557 1 1 0
28 1 17.540152977448955 6.981334992793017 39.25269242745429 0 1 0
24 1 18.669870686430187 8.128129612684678 41.08040567583004 0 0 0
30 1 16.410969690712225 8.121973815297004 37.42679163481414 0 0 0
2 3 19.795372522748597 9.2810814238474 42.91296561702798 0 1 0
4 3 18.63828649432707 8.148565139178409 44.74071967614421 1 2 0
17 2 19.76789985594331 9.302115754106405 46.56848730085156 2 1 0
22 1 22.02203708653123 9.33228991413408 50.23307043422459 1 1 0
32 1 20.89400209608074 10.460367008860775 48.401218703704956 1 1 0
35 1 23.156452662423956 10.4850893107033 52.05983763483713 0 0 0
5 3 24.29152111521869 9.352183569529442 53.88897380069776 0 1 0
16 2 24.282701475755992 11.652878562658973 57.54664474395044 1 0 0
26 1 25.423448940662727 10.515994810931407 59.375011559055345 1 1 0
33 1 23.143241178627484 10.502364503104708 55.71847959587205 2 1 0
9 2 26.56600141966354 11.66341520044319 61.20496767641092 1 0 0
25 1 28.855322684082463 11.669188721249828 64.86115954161879 0 1 0
31 1 27.709916097106614 12.810216510548752 63.03344742483526 1 0 0

Velocities

10 -0.8627433426014295 -0.3509151375990948 0.18489252001899106
11 -0.7339716980933123 -0.3067132648401884 0.9378831262891456
34 -0.814439120243351 -0.3430131292963843 -0.6778555493955776
14 -0.7903644183279511 -0.1690243860490485 -0.8852776484139415
15 -0.8816405205428235 -0.3454141491652266 1.258372323778951
20 -0.21276314574124353 -0.18287194716869884 -0.010097559571253134
27 -0.7655183519111315 -0.28947490899474143 -0.8756575844864747
1 -0.20885592178625642 -0.07201235207340007 -0.08856334843902908
19 -0.2562903023554254 -0.13766169845254225 -0.18874004472002015
3 -0.1913512145165928 -0.04347713116037251 -0.08587254447097512
7 -0.04685227437810282 0.13726946218101144 0.09962795465691283
8 -0.14943773393634605 0.017510338505859646 -0.04812119278805964
21 -0.132084770044451 0.052998796212494155 -0.12787299340718294
36 -0.10004340621578402 0.1298220783289588 -0.31246429617869387
6 0.03358388911667603 0.2922434558536494 1.5768770215255394
12 0.0718681059019628 0.32281246365486865 1.1679343920535354
18 0.08552169780087333 0.3062748467241969 -1.7240199371594118
23 0.1477399649825367 0.42084961953853756 0.2251150707941556
29 0.016424284597452737 0.30324868377278935 -0.4527297798079568
13 0.15093097403585937 0.42177958061656945 0.030537360797095448
28 0.1345029478034877 0.4483521423553554 0.09851619432815205
24 0.11992078670741486 0.41344552422497793 0.12714643986835475
30 0.15595343628868152 0.4551873628763706 0.1403214518908741
2 0.11076830445015026 0.4111123240094937 0.1524408910434971
4 0.17459147367478114 0.3703623669062469 0.1403233783772559
17 0.2047673067801124 0.23851034405577992 0.10651905340938181
22 0.394044370398837 -0.03431811804391115 0.02711614989486036
32 0.23673912375613593 0.12564521578765786 0.08527701785623347
35 0.34525542317250857 -0.13962572497602985 0.03443554727212906
5 0.4386110498178873 -0.2821323292118219 -0.056528451592265244
16 0.47115133140644994 -0.3452402882075203 -0.16604614291357253
26 0.45555059066085307 -0.3956676241767828 0.1305766778943357
33 0.476555374879043 -0.3007797274511688 0.021597829447549875
9 0.42739270331401646 -0.3931179718511378 -0.14598124090151005
25 0.44004269569368937 -0.3979487751485238 -0.06442928273866952
31 0.4203484557822028 -0.3951233736434181 0.15260030200195984
