LAMMPS data file via write_data, version 7 Feb 2024, timestep = 563, units = metal

36 atoms
3 atom types

0 2.2858575148342073 xlo xhi
0 4.571715029668415 ylo yhi
0 32.002005207678906 zlo zhi
0 0 13.715145089005244 xy xz yz

Masses

1 50.9415
2 28.085
3 51.9961

Atoms # atomic

1 3 1.0081813790875502 16.04941459903015 31.611171567420218 0 0 -1
7 3 0.9155583172142122 2.2668413108823655 3.050789931836695 0 0 0
13 2 0.8180041955721314 4.460521395469765 6.478293626020823 1 0 0
15 2 2.0104519863430186 3.3720534364914547 4.766286644610426 -1 0 0
16 2 2.105273631531938 3.4462930894484964 1.3319132675623577 0 0 0
17 2 2.0106428807335046 5.667052361028417 4.785059263734341 0 -1 0
21 1 0.9160036747087194 4.557911297497634 3.055955180349634 1 0 0
26 1 2.105588756966643 1.1588905676638785 1.330219146833432 -1 0 0
4 3 0.6545637543042314 6.510633476354947 9.759261081614186 0 0 0
10 2 0.4905331377893649 8.5681225450773 13.040882224341967 0 0 0
11 2 1.9089996219787129 7.911853800202399 8.292047600685565 0 0 0
18 2 1.9115995913006758 5.5431109061891775 8.141603669209688 0 0 0
20 1 0.818563752501192 6.78938272440375 6.515522070105235 1 0 0
25 1 1.6841345854983436 5.115663751082778 11.230394613161133 1 1 0
36 1 1.6841212178268616 7.485770907239191 11.375147115532384 1 0 0
19 2 1.5815540319409407 7.3672431979144415 14.73776021904484 0 1 0
23 1 0.38725102027058794 8.483260084699168 16.46869700796701 1 1 0
28 1 0.489129616029014 6.2427326417774225 13.00398076375209 1 1 0
33 1 1.5815037293710188 9.659898852527922 14.751619923112534 1 1 0
30 1 1.4811625764187106 9.60516228581653 18.202585707046246 1 1 0
32 1 0.3879124777745267 10.763520074045257 16.46209414763631 1 0 0
6 3 1.186121101205457 11.595115130775769 24.743102008510753 1 1 0
8 2 1.3318233528711567 9.441768229303603 21.454383211895795 1 1 0
12 2 1.1861784765346786 13.856846591843635 24.703543182591517 0 0 0
14 2 0.08807553198836915 10.508572867884778 23.045766639150916 1 1 0
22 1 1.4808146895375478 11.867409108704226 18.165394384070247 0 0 0
29 1 0.2888767462906516 10.753726566238777 19.94727231580589 1 1 0
31 1 0.29121101502444874 12.950784467845953 19.860175122123724 1 1 0
34 1 0.08895782633563412 12.704003837856792 22.96045836297395 2 1 0
2 3 1.0972321180247164 16.10299018893641 28.16558243619384 1 1 0
3 3 2.2843797872787834 14.982437474402483 26.440126429390926 -1 0 0
5 3 1.0082529339821178 13.76268096477285 31.610150713427245 1 2 0
9 2 2.1958387533726773 17.219737049776946 29.888706316913787 0 0 0
24 1 2.284432741388696 12.707897723276284 26.4512240541907 -1 1 0
27 1 2.1958917645055887 14.935374511858264 29.890431788248694 0 1 0
35 1 1.097284062070938 13.820953552728174 28.17093117395162 0 1 0

Velocities

1 -0.359566448369075 -0.8993835181704363 -0.08298584031492613
7 -0.5452169226999026 -0.7563793684276434 -1.447616336282888
13 -0.4962836732673038 -0.1788677870956682 -5.807853340265633
15 -0.5918147472950761 2.098638659176383 2.2823797889564577
16 -0.43800377180242844 -1.4004863245424846 0.9155697405164787
17 -0.599984010060058 -4.118944732645167 2.8507308380358904
21 -0.5551323652390844 -1.1518829349435755 -0.1999350758393622
26 -0.49444114593906907 -0.6291254171886287 0.28035582319517965
4 -0.2134933508724186 0.4165692777592437 -1.184011975581931
10 -0.7674968337689795 0.6235597462646034 0.22343656402698822
11 -0.5277600984029319 -4.015339452842315 2.0780589835403083
18 -0.5540458680649021 1.994255023649175 1.8783119883976174
20 -0.6445661723618024 -1.3893634991173753 -0.22128253410190268
25 0.8872703531759223 0.9301247617718283 0.26472146209755876
36 -0.2628856871425666 1.5837495226703473 -0.2550212721978797
19 0.05546376732181172 0.9191388211280812 0.15522004828770888
23 0.534667873451608 1.3815788791536536 0.14072219893817617
28 0.413865291440691 0.9174241786153481 -0.14287039391110212
33 0.20900977976580246 1.1387684480139033 0.13900752135676397
30 0.6097264040654827 1.4210582679841801 0.061121680189633376
32 0.5649465008184633 1.1770058342205676 0.33856146766208445
6 0.28275802135357 -0.3196506042597552 -0.05964911617949326
8 0.39502890022820414 0.49028420705563575 -0.07321053824989025
12 0.2360782168757485 -0.46373387405506217 -0.054361224611193165
14 0.3026105463476251 -0.2817780482401101 0.20935844781573748
22 0.6046391012016702 1.2846550679130777 0.0007813084701955256
29 0.8258240045730594 1.3407980389856538 0.2641431486408522
31 0.3080439858812826 1.366308171688963 -0.3668476227379857
34 0.35938817118689365 -0.26042150243696616 -0.3569978279388171
2 -0.014124872198411098 -0.6883128638215713 -0.02743728741894265
3 0.15302582136298548 -0.5460471191473266 -0.045746600079460784
5 -0.35751820627793324 -0.7691392021102135 -0.2877923504897208
9 -0.17728213011782776 -0.6457472387350953 0.13445355912880916
24 0.15315138231724024 -0.5601647737874541 0.030654809456984282
27 -0.2003808494750592 -0.7818433695847321 0.09924016255878641
35 -0.0144198100631995 -0.6596298384599364 -0.023373577556335918
