gsqs_5.data (written by ASE) 

7 	 atoms 
1  atom types
0.0                 2.28586  xlo xhi
0.0      16.001006427736321  ylo yhi
0.0                 2.28586  zlo zhi
     9.1434396718758286                       0                       0  xy xz yz


Atoms 

     1   1      4.9641791935669959      5.3560168815561795      1.9296544361999999
     2   1      3.8207691793403926       4.557566660812137            1.8743137656
     3   1      3.8217520946975911      4.7742202878436864     0.26696558940000004
     4   1      4.9640877766461706      4.5036432691506647     0.89365696700000008
     5   1      6.1072006276519968      5.3713778477268068     0.99350333180000006
     6   1      12.694820364567494      14.982222348482349            2.2538351014
     7   1       8.238856399377438      10.865963444947182      2.0608399416000003
