gsqs_7.data (written by ASE) 

9 	 atoms 
1  atom types
0.0      6.8575699999999999  xlo xhi
0.0      6.8575781414492427  ylo yhi
0.0                 2.28586  zlo zhi
     2.2858528877243058                       0                       0  xy xz yz


Atoms 

     1   1      6.8923815651716041      3.6871826150944291             0.727360652
     2   1      7.9078959568130074      4.2154218593302639      1.8672047409999999
     3   1      7.9270957342358352       6.789688117848895     0.72902932980000001
     4   1      7.4437293376946334      5.2396011547557082     0.72793211700000005
     5   1      2.5903292994379035      6.3064345862209663     0.74388741979999995
     6   1      8.4562949850060214      5.7482963012884127      1.8781311517999999
     7   1      6.1441990287153363      1.4930319129563292     0.73076658339999989
     8   1       6.657305832076001     0.48153913709256585      1.8785883237999998
     9   1      6.4513032571614488      2.6085541492258777            1.8674790442
