gsqs_10.data (written by ASE) 

6 	 atoms 
1  atom types
0.0      6.8575699999999999  xlo xhi
0.0                 4.57172  ylo yhi
0.0                 2.28586  zlo zhi


Atoms 

     1   1            3.3915483949      1.7408195416000001     0.38496168260000002
     2   1            4.4661981896      1.7759760683999999      1.5268859041999998
     3   1      3.4400999905000003      4.0835060211999998     0.37369239280000005
     4   1      4.4912283201000003      2.9038651095999999     0.38505311700000006
     5   1      4.4991145255999996      4.0605559867999999      1.5196854451999999
     6   1      4.5525349958999994     0.64397247920000023     0.39165925239999999
