gsqs_2.data (written by ASE) 

6 	 atoms 
1  atom types
0.0      6.8575699999999999  xlo xhi
0.0                 4.57172  ylo yhi
0.0                 2.28586  zlo zhi


Atoms 

     1   1            6.3591618124      3.5131839512000003            1.2320099642
     2   1      1.6554859737000001      3.7521477555999998               1.5543848
     3   1    0.096074555699999981      1.5495844939999999      1.4975583203999998
     4   1      2.3441917287999998            1.5717116188              1.60124493
     5   1      3.9079919916000003      3.4575004015999999      1.2974312774000001
     6   1      4.5506148763000001      1.1495589939999999            1.0097329378
