gsqs_4.data (written by ASE) 

6 	 atoms 
1  atom types
0.0      6.8575699999999999  xlo xhi
0.0                 4.57172  ylo yhi
0.0                 2.28586  zlo zhi


Atoms 

     1   1      2.9915463367999999             3.190603388      1.6386415996000001
     2   1      2.1262581541999999      2.4204057195999997            0.5036663924
     3   1            1.2216075198             1.063839244     0.67702601480000002
     4   1     0.63336516519999997      4.1464128884000004     0.53118814680000004
     5   1      1.3790573269999999      3.2924155923999998      1.6597172287999999
     6   1     0.51212332760000001      2.5186976996000001     0.52117608000000004
