LAMMPS data file via write_data, version 7 Feb 2024, timestep = 1020, units = metal

9 atoms
1 atom types

0 6.857572544502622 xlo xhi
0 6.857572544502622 ylo yhi
0 2.2858575148342073 zlo zhi
2.2858575148342073 0 0 xy xz yz

Masses

1 51.9961

Atoms # atomic

1 1 6.892369967441342 3.687165799474456 0.7273600622988512 0 0 0
2 1 7.907936925522352 4.215423202619651 1.8672087558828703 -1 0 0
3 1 7.927091507981903 6.789713369219985 0.7290367108926908 -1 -1 0
4 1 7.443760749851679 5.2396141605854005 0.7279416044514383 0 0 0
5 1 2.5903019168058288 6.3064236014663155 0.7438842446175722 0 0 0
6 1 8.456306537199426 5.748277474972702 1.878123779823458 0 0 0
7 1 6.1441761867414355 1.4930244019929066 0.7307595260515513 0 0 0
8 1 6.657302110164485 0.48155753985737765 1.8785971550682763 -1 0 0
9 1 6.451267625991848 2.6085219940297715 1.867485043110349 0 0 0

Velocities

1 -4.849380381651839e-08 2.3292655458298364e-08 9.22426000631039e-09
2 -3.2564671804530374e-08 3.5834238023711442e-09 -1.456581230646471e-08
3 1.4945617768460216e-08 -3.754541884875229e-09 4.7338515092712705e-08
4 -1.3194581621842168e-08 2.4717699021196775e-08 2.8626302884100748e-08
5 7.3097513209593695e-09 -3.252158886142212e-08 4.72985746708372e-08
6 -9.40460576990535e-09 -5.622087237458196e-09 -6.688565839348246e-08
7 5.255026261141404e-08 -1.46212842501903e-09 2.8165538397421076e-08
8 3.1935968820976776e-08 -1.9614226509194914e-08 -6.592959365334088e-08
9 -3.083935455598223e-09 1.1380796339183045e-08 -1.327212299223332e-08
