LAMMPS data file via write_data, version 7 Feb 2024, timestep = 1330, units = metal

9 atoms
1 atom types

0 6.857572544502622 xlo xhi
0 6.857572544502622 ylo yhi
0 2.2858575148342073 zlo zhi
2.2858575148342073 0 0 xy xz yz

Masses

1 51.9961

Atoms # atomic

1 1 3.5671599578383684 6.055070558814848 0.4834162750023253 0 0 0
2 1 3.71543980363709 0.07792290142091783 1.6068804281324367 0 0 0
3 1 9.106634709685956 6.761442414370829 2.1407590065899136 0 -1 -1
4 1 1.4355028047226968 0.3015431528329203 1.6215103363147902 0 0 0
5 1 3.38809831093005 4.890909955723248 1.6284857784937619 0 0 0
6 1 5.845139742885342 5.754587412148437 0.4681720528127256 0 0 0
7 1 4.683660764205367 5.896461189531101 1.6175861236978848 0 0 0
8 1 1.6230828763825849 1.4614585286013269 0.4655331631540214 0 0 0
9 1 2.549245777821563 0.15856643904429404 0.4632278813119158 0 1 1

Velocities

1 -1.5243484712296354e-08 4.105133661754901e-08 4.061854166604662e-09
2 -6.765210844542101e-08 8.023246710368387e-08 -3.596014147736966e-08
3 4.6806026100235296e-08 -4.0453448229862536e-08 1.3652074541170638e-07
4 -8.592707225848975e-08 1.272209097963654e-09 -4.955912923039416e-08
5 6.554711058336692e-08 -1.1569756082475343e-07 -3.167631467670499e-08
6 3.614969018563602e-08 2.1346821239691587e-07 -3.4831120640347886e-09
7 9.211998015535655e-08 1.044831502319302e-07 -3.55198874619797e-08
8 -1.821417314299798e-07 -3.5074954403622734e-08 -1.4391831244157697e-09
9 1.1034158982158321e-07 -2.4928141198972587e-07 1.7055168456591618e-08
