LAMMPS data file via write_data, version 7 Feb 2024, timestep = 391, units = metal

27 atoms
3 atom types

0 2.2858575148342073 xlo xhi
0 2.2858575148342073 ylo yhi
0 48.00300781151835 zlo zhi
0 18.28686011867366 13.715145089005246 xy xz yz

Masses

1 50.9415
2 28.085
3 51.9961

Atoms # atomic

14 2 3.764420449317123 2.7343139872080724 7.1326283008792934 0 0 0
17 1 3.5709170518283697 1.5909130354339243 5.073984095559652 -1 1 0
20 1 2.4360918632410495 2.738286946968954 3.3052574198576545 0 0 0
7 2 4.889445647781088 3.8692211342455796 12.450390440730045 0 1 0
8 2 4.897305095790712 3.8771563301582423 8.91168150095321 0 0 0
12 2 6.034970617739324 5.017891599764267 10.674878800426264 0 0 0
2 3 6.0310972363229585 5.001248862752069 14.218674969219965 0 0 0
11 2 7.172353750484328 6.123253850321543 15.993778819961253 0 0 0
16 1 8.311966903446997 7.24064516721001 17.762558238255064 0 0 0
19 1 9.447359453466479 6.060878455689221 19.530603178984137 0 1 0
1 3 10.54079475409431 9.319925475383851 24.84316183760491 1 0 0
15 2 8.291789058795981 7.154972833269412 21.301223918322854 0 0 0
24 1 9.418440107466848 8.240902875310946 23.07363661196621 0 1 0
6 3 11.607322023483187 10.229600661003932 30.14896694025252 2 0 0
22 1 12.730078066144202 11.292794621891462 31.91353625759609 1 0 0
23 1 11.659816791579184 8.104770655296667 26.611103883396154 1 1 0
25 1 12.77464525137943 9.166753959876825 28.38041445413659 1 1 0
3 3 16.12659541030181 12.077319944685007 40.723302567335594 1 1 0
4 3 13.857735400606792 10.071149192436733 33.674810563335285 1 1 0
10 2 14.98241663888924 13.282997243673261 38.96289711099681 1 0 0
13 2 14.990581559350979 11.137920346723126 35.438419218044025 1 1 0
21 1 16.127032125014715 12.20770149036409 37.20180488273425 1 0 0
5 3 17.27398396701964 13.165825388472332 42.48509803260053 1 1 0
9 2 18.42342415145135 14.262601726861988 44.24805235423845 1 1 0
18 1 1.2949424971923031 1.6062699148817647 1.5363850587524994 1 1 1
26 1 18.436003189308632 14.198089378223019 47.77271640872546 1 1 0
27 1 19.572156293147938 15.367882833306195 46.01058067809779 0 1 0

Velocities

14 3.450776712284749 -0.1847873684308226 -3.1573456734204597
17 -3.3290937145184922 1.9126981646552548 2.182212290849462
20 -2.7044041216136754 2.8076883274112436 1.4428592288320032
7 0.7632501616483037 -3.024459293649265 5.849148620294328
8 2.704127855902081 -1.2162769632794697 7.299996059108954
12 1.7702276006428164 -2.143728487028802 -7.285430498022176
2 -0.19805507048175502 -4.002681758746624 -1.8121808893840659
11 -0.9384204604444941 -4.005640928116016 0.9911047555659904
16 -1.7616075768168122 -4.619307360816421 -0.9764952123681122
19 -2.2542515431695636 -4.791903878887362 -0.674685709451378
1 -1.187693767509188 -2.9439479567370586 -1.06767856731133
15 -2.117560427428109 -4.089159106762532 -1.0734753523756324
24 -2.0404051642162773 -3.873675838947296 -1.2740164897767878
6 1.8358102771967637 0.129212156662439 -1.5152538021125248
22 2.114390130869787 0.6074174843704888 -1.2797273363844137
23 -1.6391719174498622 -3.306827922943283 -0.7017257586061585
25 1.272141394608472 -0.29849757547540523 -1.6143173878567187
3 1.3979128333749298 3.5407006763704376 0.6283363822207825
4 2.2167221847555587 1.2182645140307466 -0.9412609838950011
10 1.6679449081368052 2.778073257935252 0.23131669995708878
13 2.03870302471842 1.6886196830322586 -0.5577324015303854
21 2.118250274355898 2.425282035295701 -0.1486033945806093
5 0.8663090320408874 3.9713561233678187 0.950204239995071
9 0.20893234879182931 3.858690299781472 1.1431000333521169
18 -1.9795285618459086 3.501602446080613 1.6568578268546728
26 -1.216948281662234 4.01981111690363 1.5113099458891823
27 -0.45606050644932566 4.257662268567353 1.3992839004962083
