ats_22.data (written by ASE) 

5 	 atoms 
2  atom types
0.0      2.2858575148342073  xlo xhi
0.0      11.429287574171036  ylo yhi
0.0      2.2858575148342073  zlo zhi


Atoms 

     1   1     0.10760753643250784      6.8963297546541318     0.84658441737745249
     2   1      1.0939572773675643      3.5814355584746749      1.7691105682986923
     3   1     0.92836531055752525      5.5566898136503315      1.2615274649047798
     4   1    0.093016424964112776      1.0158461399540162      0.6109750976536602
     5   2      2.0612295583695581      10.128927131710704      2.0965515229270784
