LAMMPS (7 Feb 2024 - Development - 3db1e5f0f6-modified)
OMP_NUM_THREADS environment is not set. Defaulting to 1 thread. (src/comm.cpp:98)
  using 1 OpenMP thread(s) per MPI task

units           metal
boundary        p p p

read_data  ats_15.data
Reading data file ...
  triclinic box = (0 0 0) to (9.1434301 4.571715 4.571715) with tilt (2.2858575 0 0)
  1 by 1 by 1 MPI processor grid
  reading atoms ...
  16 atoms
  read_data CPU = 0.007 seconds

log log_15.lammps
